 VARIABLES = "log(<greek>D</greek>X)", "q = 2", "q = 4", "q = 6", "q = 8" 
 ZONE I=         100 ,DATAPACKING=POINT
  -2.30258509299405      -0.579817460390542       -2.12200128559418     
  -4.20648025586534       -6.45990870474983     
  -2.30258509299405      -0.579817460317787       -2.12200128966027     
  -4.20648017487258       -6.45990799644057     
  -2.39789527279837      -0.767908962652468       -2.49289226701566     
  -4.75409799280271       -7.17702997557538     
  -2.48490664978800      -0.940008346941062       -2.83307976377028     
  -5.25783246245204       -7.83906781344032     
  -2.56494935746154       -1.09859694955940       -3.14714341353710     
  -5.72388290364635       -8.45309436529817     
  -2.63905732961526       -1.24562523158775       -3.43873455486893     
  -6.15729722228773       -9.02549659034856     
  -2.70805020110221       -1.38265283692826       -3.71080400479233     
  -6.56221487365640       -9.56043351891386     
  -2.77258872223978       -1.51094571932484       -3.96576679426547     
  -6.94207140464480       -10.0631326501369     
  -2.83321334405622       -1.63154507701022       -4.20562178116652     
  -7.29971252075982       -10.5370008504858     
  -2.89037175789616       -1.74531729523149       -4.43204100342470     
  -7.63754164043873       -10.9857632741468     
  -2.99573227355399       -1.95518391859485       -4.85001143803075     
  -8.26167670729557       -11.8133678883613     
  -3.04452243772342       -2.05242559926268       -5.04379682099525     
  -8.55119851618127       -12.1929319925321     
  -3.13549421592915       -2.23381956865125       -5.40545270359512     
  -9.09193167041432       -12.9036712374168     
  -3.17805383034795       -2.31871405541127       -5.57477757666353     
  -9.34508766115136       -13.2664549157075     
  -3.25809653802148       -2.47842529647317       -5.89343102869428     
  -9.82209783356010       -13.9006438348001     
  -3.33220451017520       -2.62634433627656       -6.18865775566009     
  -10.2638441235498       -14.5397088985612     
  -3.40119738166216       -2.76409056750330       -6.46366015190602     
  -10.6757900800593       -14.8986700276537     
  -3.46573590279973       -2.89297156267376       -6.72101747683783     
  -11.0610844684502       -15.8607998294995     
  -3.55534806148941       -3.07196240291680       -7.07851839028327     
  -11.5962649777402       -16.6910670542329     
  -3.61091791264423       -3.18297704610227       -7.30030480766170     
  -11.9241610976536       -16.4129374383919     
  -3.68887945411394       -3.33874647417175       -7.61150320893056     
  -12.3977781350487       -18.3257277544042     
  -3.76120011569356       -3.48326516045568       -7.90028168581091     
  -12.8302136268666       -15.9291790255794     
  -3.82864139648910       -3.61804827679120       -8.16961556573995     
  -13.2225461254012       -16.6625600611343     
  -3.89182029811063       -3.74432442665267       -8.42211595845121     
  -13.6358541628691       -17.2428360664659     
  -3.97029191355212       -3.90117951559831       -8.73545461132835     
  -14.0280977767142       -15.7846989457731     
  -4.04305126783455       -4.04662784580773       -9.02641671514621     
  -14.6632432052961       -16.7091234834988     
  -4.11087386417331       -4.18221597337332       -9.29724531213025     
  -14.8734644099384       -15.3825685515146     
  -4.17438726989564       -4.30919608915970       -9.55093361674551     
  -15.5562662726032       -17.1176928993906     
  -4.24849524204936       -4.45736470182251       -9.84760541691469     
  -15.6122866531350       -17.1973189973061     
  -4.31748811353631       -4.59531190866448       -10.1243335205447     
  -15.9564226292964       -16.0947471135385     
  -4.39444915467243       -4.74919839650482       -10.4301822888534     
  -18.2199660745541       -15.0881813066085     
  -4.45434729625351       -4.86896800124363       -10.6687141956860     
  -21.9418577340169       -14.6726187222409     
  -4.53259949315326       -5.02544266599884       -10.9863401404380     
  -15.9153783671585       -14.5110484678002     
  -4.60517018598809       -5.17056371470933       -11.2745563492721     
  -15.8905671936459       -17.1685669334101     
  -4.67282883446191       -5.30586163872004       -11.5404472652253     
  -16.9864748033396       -15.1221466761485     
  -4.73619844839449       -5.43258799659650       -11.8047386334547     
  -17.9206154143901       -14.7066799778532     
  -4.81218435537241       -5.58454120012063       -12.1023411931342     
  -16.6158741304445       -14.0459157094369     
  -4.88280192258637       -5.72576878725680       -12.3701719952863     
  -14.6577074884051       -13.9856122667146     
  -4.94875989037817       -5.85766971016378       -12.6562223596081     
  -15.6303499390119       -13.5494020309381     
  -5.01727983681492       -5.99469916388804       -12.9334074518992     
  -16.6267050391687       -14.7990544996901     
  -5.08759633523238       -6.13533677231108       -13.2542456742426     
  -15.2939983347506       -16.0432437392123     
  -5.15905529921452       -6.27825191180784       -13.5365418503597     
  -14.5394999557679       -13.6539941522626     
  -5.23110861685458       -6.42235268591281       -13.6236912887143     
  -15.8853361543170       -14.3188306351354     
  -5.29831736654804       -6.55673044260641       -13.9649795701727     
  -17.3180268126733       -12.9595906228700     
  -5.37063802812767       -6.70139102474297       -14.3717947489211     
  -15.0455292944755       -13.0585097152797     
  -5.44241771052180       -6.84496846369617       -15.0252492387019     
  -14.8879606992832       -14.6743521135193     
  -5.50938833662797       -6.97887284866908       -15.3137558784091     
  -14.8344905838110       -12.8251424422410     
  -5.57972982598622       -7.11960592469063       -16.3825993006376     
  -16.5268363258472       -13.6672633888778     
  -5.64897423816121       -7.25815300984495       -15.9978267200764     
  -14.8729549938273       -15.2035926667963     
  -5.72031177660742       -7.40061849222729       -17.8343238008931     
  -15.0372312375285       -14.8229217539770     
  -5.78996017089725       -7.53988502913375       -16.5086365723304     
  -13.3239703593419       -11.3377976358153     
  -5.86078622346588       -7.68160129552645       -15.6680191903406     
  -13.6409748628500       -12.8050943146948     
  -5.92958914338991       -7.81922990214423       -13.5675950407746     
  -13.8523520631253       -11.7815562112641     
  -5.99893656194667       -7.95784355909450       -14.2872733631106     
  -12.3166838716712       -11.6223452577870     
  -6.06842558824413       -8.09727782003709       -16.9747076070485     
  -12.2642992647310       -11.6639181131092     
  -6.13988455222623       -8.23991691957654       -14.1536042229596     
  -12.3360046226647       -12.3824514418462     
  -6.20859002609662       -8.37687422187371       -13.6525541856577     
  -12.5386770233974       -10.8417670966396     
  -6.27852142416582       -8.51709083585280       -14.3283237497033     
  -11.9871917797441       -12.1477461995564     
  -6.34913899137978       -8.65827228243568       -14.9533113232324     
  -12.8234042120529       -12.6714498517166     
  -6.41836493593620       -8.79371680160995       -14.9442721971164     
  -14.6064780716145       -10.2417120877726     
  -6.48768401848457       -8.93085836845838       -15.4115115956825     
  -12.6819915600481       -10.1979971850079     
  -6.55819780281227       -9.08135377916735       -14.2546981328648     
  -11.7864777920513       -11.8820309279059     
  -6.62804137617956       -9.21381813414348       -12.8729127624083     
  -11.6680787618866       -10.3988063025222     
  -6.69826805411544       -9.34926132912684       -12.7685609204254     
  -12.9945456647825       -11.3158460205616     
  -6.76734312526544       -9.49234019995071       -14.5378804339833     
  -14.3113602300620       -10.0786465415312     
  -6.83733281468562       -9.64698353570974       -12.5814495154900     
  -11.3244908631417       -10.6133374499254     
  -6.90775527898214       -9.76412447011938       -14.8845430077595     
  -10.7362948342776       -11.0438585485546     
  -6.97728134163073       -9.91785925766369       -12.1347189803627     
  -10.6595893481790       -9.96830291824358     
  -7.04664727784879       -10.0264456307370       -12.5374099902863     
  -14.5237278143768       -10.8310816212964     
  -7.11639414409346       -10.2098207726801       -13.0525708918645     
  -11.2755956844104       -12.1658312886482     
  -7.18614430452230       -10.2972755439231       -13.5464206385073     
  -11.7080277869552       -10.8261604996943     
  -7.25629723969076       -10.4776505472495       -12.4829473337127     
  -10.7118497235419       -10.8605910096927     
  -7.32580750259578       -10.6507587099842       -12.3438356197491     
  -12.3273128989633       -11.5300873744374     
  -7.39572160860205       -10.8863989296446       -11.8503500111971     
  -10.4688667641369       -8.88943289196715     
  -7.46565531013400       -10.7826887106934       -10.4005462795389     
  -9.66969560324649       -9.67757740617733     
  -7.53529670244405       -10.9499995364287       -10.7538558022362     
  -11.1347068769035       -10.2101877309137     
  -7.60539236481488       -11.6781896869344       -11.5493629528240     
  -10.5269371896760       -9.98266495157138     
  -7.67508185771643       -11.4376584145304       -13.7371925047877     
  -10.8800514334037       -9.27173484681407     
  -7.74500280351580       -11.7040096805916       -11.3405630745247     
  -9.76391789841367       -8.05667178203129     
  -7.81480342948948       -11.1754293923560       -10.6029789231167     
  -9.02147293317905       -8.67467047718599     
  -7.88457651059646       -11.6269007000349       -12.6834523916213     
  -10.8036139277849       -9.61538050148060     
  -7.95437227253192       -13.9314317079412       -16.1870887061584     
  -8.64489081673466       -8.31173510386938     
  -8.02387999273487       -10.9012921829973       -10.4926144055052     
  -9.81666318574287       -11.1473190357561     
  -8.09376775793125       -13.1391269955502       -11.4698731591836     
  -8.71281692827827       -7.61411296700863     
  -8.16365617616829       -13.4757327185549       -10.4504887360779     
  -8.45025084918722       -8.21428159206224     
  -8.23323750070532       -11.8317951257511       -10.3010263293539     
  -13.4890821278145       -7.54453481789641     
  -8.30325712085313       -11.1586907074032       -10.1143081135416     
  -8.77124579239074       -7.94252775158268     
  -8.37286082052642       -11.3088868886971       -9.68675184230896     
  -8.20782021125597       -8.98310695814675     
  -8.44268513924118       -10.7643047237337       -8.94096724455592     
  -9.32287235454396       -6.79886739535872     
  -8.51258257885859       -11.1193488093774       -10.2882584950711     
  -7.96083395881624       -6.93942669409850     
  -8.58223158759562       -10.9076562118593       -9.34149247340920     
  -8.56458823699994       -6.11698761961134     
  -8.65207367361030       -9.97368190646491       -10.1542372145120     
  -9.39766670695218       -6.04326955911180     
  -8.72176535714508       -9.72639963033521       -9.25527864801049     
  -6.97981305523445       -6.76732245347458     
  -8.79163803708597       -10.0697440823186       -8.95778614205097     
  -7.01441620472502       -5.80565143525194     
  -8.86135011079625       -11.1974676907346       -7.96546727268964     
  -7.49070465008912       -5.42257151892286     
  -8.93115542977823       -9.55782048567387       -7.63092586564048     
  -7.00101119743379       -6.23401198877814     
  -9.00097644407071       -10.9030113709186       -7.70167080815697     
  -7.05918716241736       -5.84722142695432     
  -9.07073341759016       -9.74453837056187       -7.77995753324074     
  -7.15427807044830       -5.05372463828544     
  -9.14056147736868       -9.58725160084276       -8.64280009690208     
  -7.08216955460733       -5.05892571439121     
  -9.21034037197629       -10.3838758280852       -7.03474766117242     
  -7.17116013296640       -6.48960840385790     
