 VARIABLES = "DX", "Error U" 
 ZONE I=         100 ,DATAPACKING=POINT
  -1.60943791243410        1.72505990291555     
  -1.60943791243410        1.72506559552316     
  -1.70474809223842        1.64718922707431     
  -1.79175946922806        1.57341166153786     
  -1.87180217690159        1.50364286282037     
  -1.94591014905531        1.43767665332486     
  -2.01490302054227        1.37524233764837     
  -2.07944154167984        1.31606546206482     
  -2.14006616349627        1.25985499064484     
  -2.19722457733622        1.20642171385198     
  -2.30258509299405        1.10684184160504     
  -2.35137525716348        1.06040933255416     
  -2.44234703536921       0.973170340257378     
  -2.48490664978800       0.932178588707247     
  -2.56494935746154       0.854595627252631     
  -2.63905732961526       0.782499553745686     
  -2.70805020110221       0.715339131304341     
  -2.77258872223978       0.651938712279409     
  -2.86220088092947       0.563633489447556     
  -2.91777073208428       0.509296517140791     
  -2.99573227355399       0.432074986195254     
  -3.06805293513362       0.361028907341774     
  -3.13549421592915       0.294274058582511     
  -3.19867311755068       0.231454296750784     
  -3.27714473299218       0.153301663150258     
  -3.34990408727460       8.124648730533653E-002
  -3.41772668361336       1.335179523864413E-002
  -3.48124008933569      -4.863541714905103E-002
  -3.55534806148941      -0.122764584476406     
  -3.62434093297637      -0.191705496140215     
  -3.70130197411249      -0.269705235756535     
  -3.76120011569356      -0.328721556713483     
  -3.83945231259331      -0.407300980969120     
  -3.91202300542815      -0.476320529446166     
  -3.97968165390196      -0.544157917457723     
  -4.04305126783455      -0.614734852131550     
  -4.11903717481247      -0.680808663958437     
  -4.18965474202643      -0.750525901814505     
  -4.25561270981822      -0.820808062850844     
  -4.32413265625498      -0.868463921461098     
  -4.39444915467243      -0.974529841765544     
  -4.46590811865458       -1.00339752053234     
  -4.53796143629464       -1.14209743722747     
  -4.60517018598809       -1.14701593471490     
  -4.67749084756772       -1.17472994001785     
  -4.74927052996184       -1.35205626509155     
  -4.81624115606804       -1.35799835339215     
  -4.88658264542628       -1.53261340452101     
  -4.95582705760126       -1.38263978149217     
  -5.02716459604746       -1.73487302102418     
  -5.09681299033730       -1.81696656661969     
  -5.16763904290592       -1.84238120584849     
  -5.23644196282994       -1.98127386721739     
  -5.30578938138673       -1.95698454780354     
  -5.37527840768416       -2.34786458633644     
  -5.44673737166631       -2.11458374390781     
  -5.51544284553668       -2.11038695981718     
  -5.58537424360590       -2.31127014997789     
  -5.65599181081984       -2.05615621078941     
  -5.72521775537626       -2.39394306206942     
  -5.79453683792467       -2.74557032471205     
  -5.86505062225232       -2.61600423439514     
  -5.93489419561958       -1.49008556067492     
  -6.00512087355545       -2.35795983677066     
  -6.07419594470545       -1.80147861003162     
  -6.14418563412563       -2.31553093780407     
  -6.21460809842219       -1.25267332388412     
  -6.28413416107078       -4.19044144037011     
  -6.35350009728878      -0.661194555904993     
  -6.42324696353351       -2.38480709516206     
  -6.49299712396235      -0.707938611925101     
  -6.56315005913074       -1.61697431870312     
  -6.63266032203583       -1.14950635203126     
  -6.70257442804210       -1.19058491984439     
  -6.77250812957415      -0.879864860114402     
  -6.84214952188410      -0.633386519047616     
  -6.91224518425493      -0.276729639965104     
  -6.98193467715636       -2.26552459129557     
  -7.05185562295585       -2.06843512401078     
  -7.12165624892940      -0.452332084635947     
  -7.19142933003637       0.589666164624659     
  -7.26122509197198       0.977980777841491     
  -7.33073281217493      -0.153792499666670     
  -7.40062057737112       0.111751244292151     
  -7.47050899560854       -1.48113168925125     
  -7.54009032014538        1.02726421996556     
  -7.61010994029296        1.46570702959316     
  -7.67971363996648       0.813939914727525     
  -7.74953795868123        1.21132587770004     
  -7.81943539829865        1.47345081925337     
  -7.88908440703538        2.46374508151506     
  -7.95892649305004      -1.796670784040232E-002
  -8.02861817658513        2.31743065684774     
  -8.09849085652602       0.575374625464725     
  -8.16820293023592        2.58078747061378     
  -8.23800824921828        2.38578324371474     
  -8.30782926351031        2.53280783004313     
  -8.37758623702973        2.15303784299595     
  -8.44741429680822        2.99191544492152     
  -8.51719319141635        2.02966219590950     
