 VARIABLES = "log(<greek>D</greek>X)", "q = 2", "q = 4", "q = 6", "q = 8" 
 ZONE I=         100 ,DATAPACKING=POINT
  -2.30258509299405       -2.51444677186704       -6.85058104695102     
  -11.0009527763183       -15.0513804158979     
  -2.30258509299405       -2.51444677379051       -6.85058106761121     
  -11.0009573262894       -15.0511946987535     
  -2.39789527279837       -2.70449628567905       -7.23029291558517     
  -11.5701567647356       -15.8092315127000     
  -2.48490664978800       -2.87808484721533       -7.57717569692110     
  -12.0902399925021       -16.5021381750238     
  -2.56494935746154       -3.03783235181684       -7.89644163938865     
  -12.5689792895823       -17.1330676680057     
  -2.63905732961526       -3.18578016459181       -8.19215576889737     
  -13.0121058334039       -17.7119522414643     
  -2.70805020110221       -3.32354959393185       -8.46754776761018     
  -13.4254891840489       -18.2735278784953     
  -2.77258872223978       -3.45244959343631       -8.72522606762654     
  -13.8119342662446       -18.8456211599962     
  -2.83321334405622       -3.57355211894519       -8.96732819045983     
  -14.1745330447192       -19.3088882275777     
  -2.89037175789616       -3.68774598125131       -9.19563191922960     
  -14.5168032306488       -19.6644687480466     
  -2.99573227355399       -3.89827410286094       -9.61655226616242     
  -15.1463720688290       -20.9391945208170     
  -3.04452243772342       -3.99577795954797       -9.81152101753630     
  -15.4389039436668       -20.5689826176954     
  -3.13549421592915       -4.17759741473085       -10.1750893688870     
  -15.9838117963871       -22.2549468712383     
  -3.17805383034795       -4.26266592727247       -10.3451618634780     
  -16.2416111908484       -21.1056421556363     
  -3.25809653802148       -4.42266683458382       -10.6651839229384     
  -16.7003901321228       -26.7394584416693     
  -3.33220451017520       -4.57081583277506       -10.9613363258118     
  -17.1567116608854       -20.6138208651495     
  -3.40119738166216       -4.70874750787757       -11.2372158316705     
  -17.5295964069478       -20.9998763230584     
  -3.46573590279973       -4.83778023352577       -11.4951506187299     
  -17.9704073264136       -20.8495984234931     
  -3.55534806148941       -5.01695188681785       -11.8535152038699     
  -18.4502848361855       -21.4491189170678     
  -3.61091791264423       -5.12806345893602       -12.0760483554332     
  -19.3090082727459       -20.4301972023934     
  -3.68887945411394       -5.28395133605879       -12.3872091567019     
  -19.6746321854802       -21.2316961672461     
  -3.76120011569356       -5.42856529119182       -12.6769824046005     
  -21.8645113401938       -20.9725267936751     
  -3.82864139648910       -5.56342535235519       -12.9462729972106     
  -21.8335526411970       -19.3373218408434     
  -3.89182029811063       -5.68976477590111       -13.2004875271528     
  -19.4476831662125       -20.2286431688966     
  -3.97029191355212       -5.84668841200126       -13.5139601450421     
  -19.6464579887098       -18.8914142841676     
  -4.04305126783455       -5.99219047780311       -13.8051019809748     
  -20.7356487066421       -21.1818798328363     
  -4.11087386417331       -6.12782271298518       -14.0714854902494     
  -18.9793205510349       -19.7192085052429     
  -4.17438726989564       -6.25483840411408       -14.3330542543892     
  -19.7928508853739       -20.2857795361830     
  -4.24849524204936       -6.40304588280284       -14.6238464654314     
  -19.2648899486108       -23.1259062584132     
  -4.31748811353631       -6.54101693580813       -14.9192157323831     
  -20.0259369035907       -18.7165701688118     
  -4.39444915467243       -6.69494034326400       -15.2157039135425     
  -18.9527257784204       -21.4777159107799     
  -4.45434729625351       -6.81472629474945       -15.4117848006857     
  -20.5228857775482       -19.8269381314628     
  -4.53259949315326       -6.97122103821209       -15.8149204134342     
  -19.2712420345144       -22.8655601733567     
  -4.60517018598809       -7.11634899343185       -16.0951426460331     
  -18.5215307338196       -19.7163813551985     
  -4.67282883446191       -7.25166244487998       -16.3492391042358     
  -18.6649495100618       -21.4362948617691     
  -4.73619844839449       -7.37842138007568       -16.4095706913216     
  -18.2068315777164       -18.4161498625508     
  -4.81218435537241       -7.53037503156509       -16.6717456267378     
  -18.1809935855459       -18.4161480942258     
  -4.88280192258637       -7.67161122458748       -17.2689763415820     
  -23.4778943386521       -18.1089329232921     
  -4.94875989037817       -7.80351575209457       -17.8073049902392     
  -16.9770518401293       -16.9543528568448     
  -5.01727983681492       -7.94061140586640       -18.8061576866849     
  -18.8901272380729       -17.1275805479312     
  -5.08759633523238       -8.08115788727129       -16.6443458758406     
  -19.5292770782668       -16.8907146805705     
  -5.15905529921452       -8.22419490109657       -18.0703525947330     
  -16.9945345816264       -19.3351035232229     
  -5.23110861685458       -8.36812799316693       -19.8223154643921     
  -21.6741014083043       -18.1652468316454     
  -5.29831736654804       -8.50235501685009       -19.2830009411914     
  -17.7913430139317       -17.2962380660133     
  -5.37063802812767       -8.64703626761460       -16.9978748670130     
  -17.3546347507131       -16.8968136019184     
  -5.44241771052180       -8.79105982979083       -17.4189009469473     
  -17.6842887159770       -18.5467211169795     
  -5.50938833662797       -8.92431916547321       -17.2842721500992     
  -18.1802580705056       -16.4485457006042     
  -5.57972982598622       -9.06509094599454       -17.6847297580072     
  -19.8191802997423       -17.1023444400739     
  -5.64897423816121       -9.20365845872084       -18.6792507648250     
  -16.3940528684056       -18.0840914456566     
  -5.72031177660742       -9.34700091507604       -15.9753547763615     
  -15.9594204052015       -16.1027546033754     
  -5.78996017089725       -9.48602180696783       -15.7497243021580     
  -15.7565061546773       -15.2963393461901     
  -5.86078622346588       -9.62582258547761       -16.1041695391464     
  -17.4380452864236       -16.8606971676217     
  -5.92958914338991       -9.76668077911488       -15.9690194758278     
  -16.1870217904853       -15.1877282697238     
  -5.99893656194667       -9.90130588181463       -15.7206651387652     
  -14.9694613647137       -16.2085209682813     
  -6.06842558824413       -10.0461995355493       -15.2886668787489     
  -16.4329486263883       -15.9683361381518     
  -6.13988455222623       -10.1867209037917       -18.1136257754030     
  -14.8767060401873       -15.3369517765984     
  -6.20859002609662       -10.3277380318442       -16.6690929923248     
  -16.9877760697926       -16.4238177804931     
  -6.27852142416582       -10.4565037578742       -15.2452744841523     
  -15.7376499514737       -14.8293182406775     
  -6.34913899137978       -10.6152427516061       -15.5821525002642     
  -16.9780439961873       -15.5048739144662     
  -6.41836493593620       -10.7277452052011       -15.6078431969259     
  -15.6759125974964       -15.1203505512688     
  -6.48768401848457       -10.8600818270362       -14.4321064119847     
  -14.2511191124750       -14.3317228109307     
  -6.55819780281227       -11.0320791221863       -14.5028699074495     
  -15.5962579934007       -13.9581927834125     
  -6.62804137617956       -11.1785326653770       -14.2985524975323     
  -14.2103824514137       -15.4965183465397     
  -6.69826805411544       -11.3890607070360       -14.2078842716196     
  -14.9780051464853       -14.4326223603774     
  -6.76734312526544       -11.3798567220603       -13.8782706880314     
  -14.3909819999439       -13.9654697304961     
  -6.83733281468562       -11.5543187752012       -14.7304915313027     
  -14.3739864839643       -13.5579727749608     
  -6.90775527898214       -11.7239799492096       -13.3016796343729     
  -13.0380917677950       -14.2295288557272     
  -6.97728134163073       -11.8542074685339       -15.4392169450680     
  -13.9003699652743       -16.7829106606993     
  -7.04664727784879       -12.1327264418841       -14.2941542557168     
  -13.8525314936266       -13.2097520429485     
  -7.11639414409346       -12.4571185378989       -13.5734037914329     
  -12.7199107489007       -14.2685118648762     
  -7.18614430452230       -12.4178567018918       -13.0916065643950     
  -13.2662396321010       -14.9560557648176     
  -7.25629723969076       -12.3671941736676       -12.5342854453885     
  -12.9774306318865       -13.0859078143371     
  -7.32580750259578       -13.5741995187804       -13.4898593667965     
  -14.0593070827592       -14.2559632175669     
  -7.39572160860205       -11.9600370636721       -12.6783725151732     
  -13.3545629904708       -12.8662919944520     
  -7.46565531013400       -12.1783213879229       -16.7848640542258     
  -13.3562646036319       -13.9194063762568     
  -7.53529670244405       -11.6876833060374       -12.8733685161347     
  -12.9944263639371       -12.9831645618700     
  -7.60539236481488       -14.9356708349322       -13.1815984107790     
  -12.7183526434162       -14.9132795809681     
  -7.67508185771643       -13.3135449553377       -12.4806787479534     
  -12.1310145704762       -11.9566441991098     
  -7.74500280351580       -12.6296820326936       -15.6359155294841     
  -13.2727099182115       -16.7205105293791     
  -7.81480342948948       -11.9998608457569       -11.9194381207124     
  -17.1641821487711       -11.8563804944628     
  -7.88457651059646       -12.9011359662667       -11.3423916934514     
  -12.3019254253203       -12.3472116311364     
  -7.95437227253192       -11.6567300546350       -12.7922954859855     
  -16.9222979475843       -11.2986922249359     
  -8.02387999273487       -11.8111995238796       -11.4206525484252     
  -13.2100776524997       -11.3472823392815     
  -8.09376775793125       -11.7046863633834       -11.8464187444300     
  -11.5997205235104       -11.4872728205030     
  -8.16365617616829       -11.2270850385594       -11.0670705962609     
  -12.0704667699756       -11.4982445753562     
  -8.23323750070532       -11.9709464745247       -12.0547134171006     
  -11.8370944190340       -10.8447391588191     
  -8.30325712085313       -11.9583008385171       -10.7229074207635     
  -11.9268246669881       -12.3281399871672     
  -8.37286082052642       -12.6855562103336       -11.2934810248208     
  -11.0723618619436       -10.5572621944271     
  -8.44268513924118       -11.3043080225122       -10.2416289745821     
  -11.6032836408033       -11.3761032759657     
  -8.51258257885859       -11.6605475209232       -10.2731433318488     
  -10.0534511260614       -10.5484812201920     
  -8.58223158759562       -11.1764932375140       -10.4630073070810     
  -12.0232823287977       -9.79555906352137     
  -8.65207367361030       -11.8569625499461       -10.3519313168790     
  -10.5710536557664       -11.7202987788144     
  -8.72176535714508       -11.1394030624489       -11.8210279941216     
  -10.3982524398897       -9.70320310919403     
  -8.79163803708597       -10.7016396264580       -10.8888192946004     
  -10.7275596516381       -9.67010112702188     
  -8.86135011079625       -11.7265855879355       -11.0223595134724     
  -10.9599881068665       -10.0439711948920     
  -8.93115542977823       -9.82085593598562       -10.3712777674950     
  -9.41832002615245       -9.38482234900750     
  -9.00097644407071       -10.1514646279699       -9.69258765498082     
  -13.0609109841498       -8.90387725175867     
  -9.07073341759016       -9.06915836682044       -10.3060839727077     
  -9.42027472946367       -9.38480571624688     
  -9.14056147736868       -10.4900136251734       -9.81601445347395     
  -10.0333492654872       -10.2975752006669     
  -9.21034037197629       -10.4216812679049       -9.00196769948113     
  -10.6393510326129       -9.09073197040746     
