 VARIABLES = "DX", "Error U" 
 ZONE I=         100 ,DATAPACKING=POINT
  -1.60943791243410       -11.1105459985459     
  -1.60943791243410       -12.8683140908238     
  -1.70474809223842       -10.6357213465065     
  -1.79175946922806       -9.61329374262121     
  -1.87180217690159       -10.2381074877168     
  -1.94591014905531       -11.4822697526117     
  -2.01490302054227       -9.90634832634943     
  -2.07944154167984       -9.63743343501862     
  -2.14006616349627       -11.7810396935568     
  -2.19722457733622       -8.76880595225586     
  -2.30258509299405       -9.26386812842029     
  -2.35137525716348       -8.87921754303987     
  -2.44234703536921       -8.42551936772592     
  -2.48490664978800       -8.40517815396549     
  -2.56494935746154       -9.59723679088356     
  -2.63905732961526       -8.87501647982765     
  -2.70805020110221       -9.29954685087900     
  -2.77258872223978       -8.60391842879251     
  -2.86220088092947       -7.68394405580763     
  -2.91777073208428       -9.05352570489300     
  -2.99573227355399       -8.92710113742375     
  -3.06805293513362       -8.94421225946029     
  -3.13549421592915       -7.49736761798312     
  -3.19867311755068       -7.53194071384074     
  -3.27714473299218       -7.36787892583314     
  -3.34990408727460       -6.72466586337881     
  -3.41772668361336       -8.26830916268067     
  -3.48124008933569       -6.39013951410615     
  -3.55534806148941       -7.24903708310447     
  -3.62434093297637       -6.77690287269677     
  -3.70130197411249       -6.13315700493853     
  -3.76120011569356       -7.95954074781072     
  -3.83945231259331       -5.87420069637587     
  -3.91202300542815       -6.43209116081368     
  -3.97968165390196       -5.89991588650782     
  -4.04305126783455       -5.69040415555096     
  -4.11903717481247       -7.78571021551594     
  -4.18965474202643       -5.65568295143256     
  -4.25561270981822       -5.03549228397428     
  -4.32413265625498       -5.17632885521851     
  -4.39444915467243       -5.99290564734084     
  -4.46590811865458       -4.92449583119196     
  -4.53796143629464       -6.02651717375911     
  -4.60517018598809       -5.33157830115670     
  -4.67749084756772       -8.39719868475731     
  -4.74927052996184       -7.34611584130430     
  -4.81624115606804       -4.05360033652035     
  -4.88658264542628       -9.13360956107609     
  -4.95582705760126       -3.47094233478881     
  -5.02716459604746       -4.44484305342801     
  -5.09681299033730       -3.67496536848132     
  -5.16763904290592       -3.87438769526949     
  -5.23644196282994       -4.31336803636149     
  -5.30578938138673       -3.60484087652289     
  -5.37527840768416       -3.18940197358195     
  -5.44673737166631       -3.91830626646028     
  -5.51544284553668       -3.03582892456336     
  -5.58537424360590       -3.57307178056568     
  -5.65599181081984       -2.89351742095034     
  -5.72521775537626       -3.94778313225404     
  -5.79453683792467       -2.70501442479663     
  -5.86505062225232       -1.61585365812830     
  -5.93489419561958       -2.38091704539213     
  -6.00512087355545       -2.14054734341540     
  -6.07419594470545       -1.04814635248287     
  -6.14418563412563       -1.57575973862396     
  -6.21460809842219       -1.66361457007846     
  -6.28413416107078       -1.36512624034358     
  -6.35350009728878       -1.32037451724104     
  -6.42324696353351      -0.858436420879007     
  -6.49299712396235       -3.52673831118324     
  -6.56315005913074      -0.915216647857390     
  -6.63266032203583      -0.469448765558481     
  -6.70257442804210      -0.523573477559938     
  -6.77250812957415       0.417126348115993     
  -6.84214952188410      -0.144019792373310     
  -6.91224518425493       0.418393939937801     
  -6.98193467715636       -1.59988117152044     
  -7.05185562295585      -6.365789580508019E-002
  -7.12165624892940      -0.653135858322856     
  -7.19142933003637       -2.91350563065187     
  -7.26122509197198      -0.691990502851616     
  -7.33073281217493      -0.168278102355756     
  -7.40062057737112        1.47299656190930     
  -7.47050899560854       0.188844373684928     
  -7.54009032014538        1.49450460135313     
  -7.61010994029296       0.885504540306516     
  -7.67971363996648        1.76587638049472     
  -7.74953795868123        1.88968802736669     
  -7.81943539829865       0.403829611747998     
  -7.88908440703538        2.50464182809158     
  -7.95892649305004        2.33406184319577     
  -8.02861817658513        2.64830304277151     
  -8.09849085652602        2.32543751373495     
  -8.16820293023592        2.72318700239792     
  -8.23800824921828        1.08373245349672     
  -8.30782926351031        3.24913682971518     
  -8.37758623702973        3.31186325480881     
  -8.44741429680822        1.93518656295080     
  -8.51719319141635        1.23044595144024     
