 VARIABLES = "X", "Y", "U0", "U1", "U2", "U3", "U4" 
 ZONE I=          21 , J=          21 ,DATAPACKING=POINT
  -1.00000000000000       -1.00000000000000       1.499759782661858E-032
  1.499759782661858E-032  1.499759782661858E-032  1.499759782661858E-032
  1.499759782661858E-032
 -0.955162973124140       -1.00000000000000       0.000000000000000E+000
  0.000000000000000E+000  0.000000000000000E+000  0.000000000000000E+000
  0.000000000000000E+000
 -0.848039647510822       -1.00000000000000       0.000000000000000E+000
  0.000000000000000E+000  0.000000000000000E+000  0.000000000000000E+000
  0.000000000000000E+000
 -0.741262543272473       -1.00000000000000       0.000000000000000E+000
  0.000000000000000E+000  0.000000000000000E+000  0.000000000000000E+000
  0.000000000000000E+000
 -0.635605065171759       -1.00000000000000       0.000000000000000E+000
  0.000000000000000E+000  0.000000000000000E+000  0.000000000000000E+000
  0.000000000000000E+000
 -0.529610856542781       -1.00000000000000       0.000000000000000E+000
  0.000000000000000E+000  0.000000000000000E+000  0.000000000000000E+000
  0.000000000000000E+000
 -0.423704436434061       -1.00000000000000       0.000000000000000E+000
  0.000000000000000E+000  0.000000000000000E+000  0.000000000000000E+000
  0.000000000000000E+000
 -0.317774315082929       -1.00000000000000       0.000000000000000E+000
  0.000000000000000E+000  0.000000000000000E+000  0.000000000000000E+000
  0.000000000000000E+000
 -0.211850529508475       -1.00000000000000       0.000000000000000E+000
  0.000000000000000E+000  0.000000000000000E+000  0.000000000000000E+000
  0.000000000000000E+000
 -0.105925053478478       -1.00000000000000       0.000000000000000E+000
  0.000000000000000E+000  0.000000000000000E+000  0.000000000000000E+000
  0.000000000000000E+000
 -9.663058790326291E-019  -1.00000000000000       0.000000000000000E+000
  0.000000000000000E+000  0.000000000000000E+000  0.000000000000000E+000
  0.000000000000000E+000
  0.105925053478478       -1.00000000000000       0.000000000000000E+000
  0.000000000000000E+000  0.000000000000000E+000  0.000000000000000E+000
  0.000000000000000E+000
  0.211850529508475       -1.00000000000000       0.000000000000000E+000
  0.000000000000000E+000  0.000000000000000E+000  0.000000000000000E+000
  0.000000000000000E+000
  0.317774315082929       -1.00000000000000       0.000000000000000E+000
  0.000000000000000E+000  0.000000000000000E+000  0.000000000000000E+000
  0.000000000000000E+000
  0.423704436434061       -1.00000000000000       0.000000000000000E+000
  0.000000000000000E+000  0.000000000000000E+000  0.000000000000000E+000
  0.000000000000000E+000
  0.529610856542781       -1.00000000000000       0.000000000000000E+000
  0.000000000000000E+000  0.000000000000000E+000  0.000000000000000E+000
  0.000000000000000E+000
  0.635605065171759       -1.00000000000000       0.000000000000000E+000
  0.000000000000000E+000  0.000000000000000E+000  0.000000000000000E+000
  0.000000000000000E+000
  0.741262543272473       -1.00000000000000       0.000000000000000E+000
  0.000000000000000E+000  0.000000000000000E+000  0.000000000000000E+000
  0.000000000000000E+000
  0.848039647510822       -1.00000000000000       0.000000000000000E+000
  0.000000000000000E+000  0.000000000000000E+000  0.000000000000000E+000
  0.000000000000000E+000
  0.955162973124140       -1.00000000000000       0.000000000000000E+000
  0.000000000000000E+000  0.000000000000000E+000  0.000000000000000E+000
  0.000000000000000E+000
   1.00000000000000       -1.00000000000000      -1.499759782661858E-032
 -1.499759782661858E-032 -1.499759782661858E-032 -1.499759782661858E-032
 -1.499759782661858E-032
  -1.00000000000000      -0.955162973124140       0.000000000000000E+000
  0.000000000000000E+000  0.000000000000000E+000  0.000000000000000E+000
  0.000000000000000E+000
 -0.955162973124140      -0.955162973124140       9.549150281252636E-002
  7.152098152705139E-002  5.099322673887169E-002  6.955200152415612E-002
  8.973782062964934E-002
 -0.848039647510822      -0.955162973124140       0.181635632001340     
  0.107861932415068       4.020857139747306E-002  0.101160361509996     
  0.167673317561534     
 -0.741262543272473      -0.955162973124140       0.250000000000000     
  0.136768374348098       2.912701756496649E-002  0.127334301211868     
  0.232726644507829     
 -0.635605065171759      -0.955162973124140       0.293892626146237     
  0.153475005862886       1.877359816531912E-002  0.143777263330700     
  0.276254921839427     
 -0.529610856542781      -0.955162973124140       0.309016994374948     
  0.154720768156084       9.294318197243134E-003  0.146855196074081     
  0.292758506153499     
 -0.423704436434061      -0.955162973124140       0.293892626146237     
  0.142339605329187       2.131266594940030E-003  0.135548507453028     
  0.279542472641644     
 -0.317774315082929      -0.955162973124140       0.250000000000000     
  0.119451098066076      -2.208103685122811E-003  0.112673615487684     
  0.237760560633880     
 -0.211850529508475      -0.955162973124140       0.181635632001340     
  8.649316288903407E-002 -3.930639358270841E-003  8.103038935578430E-002
  0.171625866519604     
 -0.105925053478478      -0.955162973124140       9.549150281252632E-002
  4.544487753502943E-002 -3.219690587651975E-003  4.238960981092903E-002
  8.910330599847942E-002
 -9.663058790326291E-019 -0.955162973124140       0.000000000000000E+000
  5.003031255511177E-017  1.230433893353022E-016  1.151341555085787E-016
  1.441066199051464E-017
  0.105925053478478      -0.955162973124140      -9.549150281252640E-002
 -4.544487753502946E-002  3.219690587652087E-003 -4.238960981092897E-002
 -8.910330599847946E-002
  0.211850529508475      -0.955162973124140      -0.181635632001340     
 -8.649316288903376E-002  3.930639358271214E-003 -8.103038935578381E-002
 -0.171625866519604     
  0.317774315082929      -0.955162973124140      -0.250000000000000     
 -0.119451098066076       2.208103685122809E-003 -0.112673615487684     
 -0.237760560633880     
  0.423704436434061      -0.955162973124140      -0.293892626146237     
 -0.142339605329187      -2.131266594940277E-003 -0.135548507453028     
 -0.279542472641644     
  0.529610856542781      -0.955162973124140      -0.309016994374948     
 -0.154720768156084      -9.294318197243549E-003 -0.146855196074081     
 -0.292758506153499     
  0.635605065171759      -0.955162973124140      -0.293892626146237     
 -0.153475005862886      -1.877359816531957E-002 -0.143777263330700     
 -0.276254921839427     
  0.741262543272473      -0.955162973124140      -0.250000000000000     
 -0.136768374348098      -2.912701756496667E-002 -0.127334301211868     
 -0.232726644507829     
  0.848039647510822      -0.955162973124140      -0.181635632001340     
 -0.107861932415068      -4.020857139747322E-002 -0.101160361509996     
 -0.167673317561534     
  0.955162973124140      -0.955162973124140      -9.549150281252648E-002
 -7.152098152705144E-002 -5.099322673887180E-002 -6.955200152415628E-002
 -8.973782062964952E-002
   1.00000000000000      -0.955162973124140       0.000000000000000E+000
  0.000000000000000E+000  0.000000000000000E+000  0.000000000000000E+000
  0.000000000000000E+000
  -1.00000000000000      -0.848039647510822       0.000000000000000E+000
  0.000000000000000E+000  0.000000000000000E+000  0.000000000000000E+000
  0.000000000000000E+000
 -0.955162973124140      -0.848039647510822       0.181635632001340     
  0.107861932415069       4.020857139747328E-002  0.101160361509996     
  0.167673317561534     
 -0.848039647510822      -0.848039647510822       0.345491502812526     
  0.115873662135201      -0.107280224790943       9.311484945790029E-002
  0.312220384176629     
 -0.741262543272473      -0.848039647510822       0.475528258147577     
  0.121696871445353      -0.233706467522708       8.956349834271062E-002
  0.436576582968164     
 -0.635605065171759      -0.848039647510822       0.559016994374948     
  0.119400514038758      -0.325693922060234       8.605419939592478E-002
  0.522024646167534     
 -0.529610856542781      -0.848039647510822       0.587785252292473     
  0.104152145159739      -0.376888104011547       7.623824398042078E-002
  0.556333000994525     
 -0.423704436434061      -0.848039647510822       0.559016994374948     
  8.363261916756713E-002 -0.380615500571016       5.877689988772488E-002
  0.532654390951944     
 -0.317774315082929      -0.848039647510822       0.475528258147577     
  6.590241543077206E-002 -0.337127197847151       4.118168732582691E-002
  0.452894441244090     
 -0.211850529508475      -0.848039647510822       0.345491502812526     
  4.694844662121526E-002 -0.252754604026139       2.712231502508564E-002
  0.325280960755727     
 -0.105925053478478      -0.848039647510822       0.181635632001340     
  2.460411390554840E-002 -0.136749531311132       1.355861205286425E-002
  0.167247108818566     
 -9.663058790326291E-019 -0.848039647510822       0.000000000000000E+000
  1.729329143303113E-016  4.108875699109958E-016  3.802511517925709E-016
  4.466560630030547E-017
  0.105925053478478      -0.848039647510822      -0.181635632001340     
 -2.460411390554803E-002  0.136749531311132      -1.355861205286331E-002
 -0.167247108818565     
  0.211850529508475      -0.848039647510822      -0.345491502812526     
 -4.694844662121503E-002  0.252754604026140      -2.712231502508520E-002
 -0.325280960755727     
  0.317774315082929      -0.848039647510822      -0.475528258147577     
 -6.590241543077192E-002  0.337127197847151      -4.118168732582658E-002
 -0.452894441244090     
  0.423704436434061      -0.848039647510822      -0.559016994374947     
 -8.363261916756694E-002  0.380615500571016      -5.877689988772458E-002
 -0.532654390951944     
  0.529610856542781      -0.848039647510822      -0.587785252292473     
 -0.104152145159739       0.376888104011546      -7.623824398042134E-002
 -0.556333000994525     
  0.635605065171759      -0.848039647510822      -0.559016994374948     
 -0.119400514038758       0.325693922060234      -8.605419939592500E-002
 -0.522024646167534     
  0.741262543272473      -0.848039647510822      -0.475528258147577     
 -0.121696871445353       0.233706467522707      -8.956349834271107E-002
 -0.436576582968164     
  0.848039647510822      -0.848039647510822      -0.345491502812526     
 -0.115873662135201       0.107280224790943      -9.311484945790047E-002
 -0.312220384176629     
  0.955162973124140      -0.848039647510822      -0.181635632001341     
 -0.107861932415069      -4.020857139747343E-002 -0.101160361509997     
 -0.167673317561535     
   1.00000000000000      -0.848039647510822       0.000000000000000E+000
  0.000000000000000E+000  0.000000000000000E+000  0.000000000000000E+000
  0.000000000000000E+000
  -1.00000000000000      -0.741262543272473       0.000000000000000E+000
  0.000000000000000E+000  0.000000000000000E+000  0.000000000000000E+000
  0.000000000000000E+000
 -0.955162973124140      -0.741262543272473       0.250000000000000     
  0.136768374348098       2.912701756496639E-002  0.127334301211868     
  0.232726644507829     
 -0.848039647510822      -0.741262543272473       0.475528258147577     
  0.121696871445353      -0.233706467522708       8.956349834271057E-002
  0.436576582968164     
 -0.741262543272473      -0.741262543272473       0.654508497187474     
  0.108098163838669      -0.458415217990732       6.357064017439569E-002
  0.612641448166465     
 -0.635605065171759      -0.741262543272473       0.769420884293814     
  8.979097877744348E-002 -0.619991761858331       4.501655026120142E-002
  0.734186127417343     
 -0.529610856542781      -0.741262543272473       0.809016994374947     
  6.101058523780969E-002 -0.706682275883568       2.490396057266387E-002
  0.783564978205667     
 -0.423704436434061      -0.741262543272473       0.769420884293813     
  3.397895837034133E-002 -0.707569135141361       1.663212170149585E-003
  0.750559805363118     
 -0.317774315082929      -0.741262543272473       0.654508497187474     
  2.053343074853977E-002 -0.623479122021793      -1.283662912392917E-002
  0.637877128780510     
 -0.211850529508475      -0.741262543272473       0.475528258147577     
  1.330047193238734E-002 -0.465812718471172      -1.385962393649312E-002
  0.457235784798351     
 -0.105925053478478      -0.741262543272473       0.250000000000000     
  6.818567867612518E-003 -0.251186931788795      -8.411055404002180E-003
  0.234242813734988     
 -9.663058790326291E-019 -0.741262543272473       0.000000000000000E+000
  3.140139942420050E-016  6.794651151125769E-016  6.282572406747100E-016
  6.141735714769375E-017
  0.105925053478478      -0.741262543272473      -0.250000000000000     
 -6.818567867612293E-003  0.251186931788796       8.411055404003128E-003
 -0.234242813734988     
  0.211850529508475      -0.741262543272473      -0.475528258147577     
 -1.330047193238663E-002  0.465812718471174       1.385962393649406E-002
 -0.457235784798351     
  0.317774315082929      -0.741262543272473      -0.654508497187474     
 -2.053343074853948E-002  0.623479122021793       1.283662912393011E-002
 -0.637877128780509     
  0.423704436434061      -0.741262543272473      -0.769420884293813     
 -3.397895837034175E-002  0.707569135141360      -1.663212170149383E-003
 -0.750559805363118     
  0.529610856542781      -0.741262543272473      -0.809016994374947     
 -6.101058523780983E-002  0.706682275883567      -2.490396057266443E-002
 -0.783564978205667     
  0.635605065171759      -0.741262543272473      -0.769420884293813     
 -8.979097877744335E-002  0.619991761858329      -4.501655026120225E-002
 -0.734186127417343     
  0.741262543272473      -0.741262543272473      -0.654508497187474     
 -0.108098163838669       0.458415217990731      -6.357064017439633E-002
 -0.612641448166464     
  0.848039647510822      -0.741262543272473      -0.475528258147577     
 -0.121696871445352       0.233706467522708      -8.956349834271086E-002
 -0.436576582968164     
  0.955162973124140      -0.741262543272473      -0.250000000000000     
 -0.136768374348098      -2.912701756496676E-002 -0.127334301211868     
 -0.232726644507830     
   1.00000000000000      -0.741262543272473       0.000000000000000E+000
  0.000000000000000E+000  0.000000000000000E+000  0.000000000000000E+000
  0.000000000000000E+000
  -1.00000000000000      -0.635605065171759       0.000000000000000E+000
  0.000000000000000E+000  0.000000000000000E+000  0.000000000000000E+000
  0.000000000000000E+000
 -0.955162973124140      -0.635605065171759       0.293892626146237     
  0.153475005862886       1.877359816531925E-002  0.143777263330700     
  0.276254921839427     
 -0.848039647510822      -0.635605065171759       0.559016994374947     
  0.119400514038758      -0.325693922060234       8.605419939592535E-002
  0.522024646167535     
 -0.741262543272473      -0.635605065171759       0.769420884293814     
  8.979097877744358E-002 -0.619991761858331       4.501655026120120E-002
  0.734186127417343     
 -0.635605065171759      -0.635605065171759       0.904508497187474     
  5.881816916543481E-002 -0.830510587978711       1.638262735141092E-002
  0.880635190377160     
 -0.529610856542781      -0.635605065171759       0.951056516295154     
  2.024381570148423E-002 -0.941847860119933      -1.079687549535769E-002
  0.940204411538143     
 -0.423704436434061      -0.635605065171759       0.904508497187474     
 -1.060093115885649E-002 -0.940460833278222      -3.822588125455436E-002
  0.900474402136402     
 -0.317774315082929      -0.635605065171759       0.769420884293814     
 -1.962076666653740E-002 -0.827535176810519      -5.075574481344239E-002
  0.764890278434265     
 -0.211850529508475      -0.635605065171759       0.559016994374947     
 -1.651550108958979E-002 -0.617743206482863      -4.274231431596782E-002
  0.547622583773560     
 -0.105925053478478      -0.635605065171759       0.293892626146237     
 -9.003874096658751E-003 -0.332719241446880      -2.395359483921607E-002
  0.279960633196721     
 -9.663058790326291E-019 -0.635605065171759       0.000000000000000E+000
  4.379954960824199E-016  8.850758328578789E-016  8.586918172349888E-016
  3.916158636105096E-017
  0.105925053478478      -0.635605065171759      -0.293892626146237     
  9.003874096659365E-003  0.332719241446881       2.395359483921767E-002
 -0.279960633196721     
  0.211850529508475      -0.635605065171759      -0.559016994374947     
  1.651550108959041E-002  0.617743206482864       4.274231431596875E-002
 -0.547622583773561     
  0.317774315082929      -0.635605065171759      -0.769420884293814     
  1.962076666653767E-002  0.827535176810519       5.075574481344286E-002
 -0.764890278434265     
  0.423704436434061      -0.635605065171759      -0.904508497187474     
  1.060093115885654E-002  0.940460833278222       3.822588125455437E-002
 -0.900474402136402     
  0.529610856542781      -0.635605065171759      -0.951056516295154     
 -2.024381570148525E-002  0.941847860119931       1.079687549535725E-002
 -0.940204411538143     
  0.635605065171759      -0.635605065171759      -0.904508497187474     
 -5.881816916543486E-002  0.830510587978710      -1.638262735141208E-002
 -0.880635190377160     
  0.741262543272473      -0.635605065171759      -0.769420884293814     
 -8.979097877744339E-002  0.619991761858330      -4.501655026120172E-002
 -0.734186127417342     
  0.848039647510822      -0.635605065171759      -0.559016994374947     
 -0.119400514038758       0.325693922060235      -8.605419939592472E-002
 -0.522024646167534     
  0.955162973124140      -0.635605065171759      -0.293892626146237     
 -0.153475005862887      -1.877359816531948E-002 -0.143777263330700     
 -0.276254921839427     
   1.00000000000000      -0.635605065171759       0.000000000000000E+000
  0.000000000000000E+000  0.000000000000000E+000  0.000000000000000E+000
  0.000000000000000E+000
  -1.00000000000000      -0.529610856542781       0.000000000000000E+000
  0.000000000000000E+000  0.000000000000000E+000  0.000000000000000E+000
  0.000000000000000E+000
 -0.955162973124140      -0.529610856542781       0.309016994374948     
  0.154720768156084       9.294318197242954E-003  0.146855196074080     
  0.292758506153499     
 -0.848039647510822      -0.529610856542781       0.587785252292473     
  0.104152145159739      -0.376888104011547       7.623824398042056E-002
  0.556333000994525     
 -0.741262543272473      -0.529610856542781       0.809016994374947     
  6.101058523780978E-002 -0.706682275883568       2.490396057266360E-002
  0.783564978205667     
 -0.635605065171759      -0.529610856542781       0.951056516295154     
  2.024381570148416E-002 -0.941847860119934      -1.079687549535892E-002
  0.940204411538142     
 -0.529610856542781      -0.529610856542781        1.00000000000000     
 -2.440636082089739E-002  -1.06518296675295      -4.243779603279083E-002
   1.00375232463828     
 -0.423704436434061      -0.529610856542781       0.951056516295154     
 -5.582615196306703E-002  -1.06211696987898      -7.172879265391752E-002
  0.960955435940200     
 -0.317774315082929      -0.529610856542781       0.809016994374947     
 -5.932163709540170E-002 -0.934029892726209      -8.151933988203432E-002
  0.815767925972046     
 -0.211850529508475      -0.529610856542781       0.587785252292473     
 -4.596753779746157E-002 -0.697013698931063      -6.577994808973853E-002
  0.583436118625102     
 -0.105925053478478      -0.529610856542781       0.309016994374947     
 -2.471747773966095E-002 -0.375153120320855      -3.624812690983084E-002
  0.297761547488628     
 -9.663058790326291E-019 -0.529610856542781       0.000000000000000E+000
  5.385863787308861E-016  9.560783860965283E-016  9.966306624103229E-016
  9.005619257126623E-018
  0.105925053478478      -0.529610856542781      -0.309016994374948     
  2.471747773966186E-002  0.375153120320857       3.624812690983246E-002
 -0.297761547488629     
  0.211850529508475      -0.529610856542781      -0.587785252292473     
  4.596753779746193E-002  0.697013698931063       6.577994808974007E-002
 -0.583436118625102     
  0.317774315082929      -0.529610856542781      -0.809016994374947     
  5.932163709540200E-002  0.934029892726209       8.151933988203558E-002
 -0.815767925972045     
  0.423704436434061      -0.529610856542781      -0.951056516295154     
  5.582615196306654E-002   1.06211696987898       7.172879265391854E-002
 -0.960955435940198     
  0.529610856542781      -0.529610856542781       -1.00000000000000     
  2.440636082089595E-002   1.06518296675295       4.243779603278923E-002
  -1.00375232463828     
  0.635605065171759      -0.529610856542781      -0.951056516295154     
 -2.024381570148521E-002  0.941847860119931       1.079687549535660E-002
 -0.940204411538143     
  0.741262543272473      -0.529610856542781      -0.809016994374947     
 -6.101058523781016E-002  0.706682275883567      -2.490396057266464E-002
 -0.783564978205667     
  0.848039647510822      -0.529610856542781      -0.587785252292473     
 -0.104152145159739       0.376888104011547      -7.623824398042052E-002
 -0.556333000994524     
  0.955162973124140      -0.529610856542781      -0.309016994374948     
 -0.154720768156084      -9.294318197243349E-003 -0.146855196074081     
 -0.292758506153499     
   1.00000000000000      -0.529610856542781       0.000000000000000E+000
  0.000000000000000E+000  0.000000000000000E+000  0.000000000000000E+000
  0.000000000000000E+000
  -1.00000000000000      -0.423704436434061       0.000000000000000E+000
  0.000000000000000E+000  0.000000000000000E+000  0.000000000000000E+000
  0.000000000000000E+000
 -0.955162973124140      -0.423704436434061       0.293892626146237     
  0.142339605329187       2.131266594940088E-003  0.135548507453028     
  0.279542472641644     
 -0.848039647510822      -0.423704436434061       0.559016994374947     
  8.363261916756676E-002 -0.380615500571017       5.877689988772412E-002
  0.532654390951944     
 -0.741262543272473      -0.423704436434061       0.769420884293813     
  3.397895837034166E-002 -0.707569135141361       1.663212170149519E-003
  0.750559805363119     
 -0.635605065171759      -0.423704436434061       0.904508497187474     
 -1.060093115885636E-002 -0.940460833278222      -3.822588125455373E-002
  0.900474402136404     
 -0.529610856542781      -0.423704436434061       0.951056516295154     
 -5.582615196306669E-002  -1.06211696987898      -7.172879265391674E-002
  0.960955435940201     
 -0.423704436434061      -0.423704436434061       0.904508497187474     
 -8.485733322819969E-002  -1.05828336264580      -0.100309544662665     
  0.919481785707279     
 -0.317774315082929      -0.423704436434061       0.769420884293813     
 -8.394027281396547E-002 -0.930344848699498      -0.106253724766169     
  0.780077028534419     
 -0.211850529508475      -0.423704436434061       0.559016994374947     
 -6.412024460348066E-002 -0.694145451931330      -8.374612642672934E-002
  0.557410891801871     
 -0.105925053478478      -0.423704436434061       0.293892626146237     
 -3.440853248851236E-002 -0.373516347087618      -4.565167246490948E-002
  0.284093504039525     
 -9.663058790326291E-019 -0.423704436434061       0.000000000000000E+000
  6.203102045390345E-016  9.854680623279808E-016  1.060039852927187E-015
  3.204045219520684E-017
  0.105925053478478      -0.423704436434061      -0.293892626146237     
  3.440853248851345E-002  0.373516347087619       4.565167246491143E-002
 -0.284093504039526     
  0.211850529508475      -0.423704436434061      -0.559016994374947     
  6.412024460348174E-002  0.694145451931331       8.374612642673177E-002
 -0.557410891801869     
  0.317774315082929      -0.423704436434061      -0.769420884293813     
  8.394027281396607E-002  0.930344848699499       0.106253724766170     
 -0.780077028534418     
  0.423704436434061      -0.423704436434061      -0.904508497187474     
  8.485733322820012E-002   1.05828336264580       0.100309544662666     
 -0.919481785707278     
  0.529610856542781      -0.423704436434061      -0.951056516295154     
  5.582615196306583E-002   1.06211696987898       7.172879265391684E-002
 -0.960955435940200     
  0.635605065171759      -0.423704436434061      -0.904508497187474     
  1.060093115885694E-002  0.940460833278222       3.822588125455451E-002
 -0.900474402136402     
  0.741262543272473      -0.423704436434061      -0.769420884293813     
 -3.397895837034204E-002  0.707569135141360      -1.663212170150587E-003
 -0.750559805363118     
  0.848039647510822      -0.423704436434061      -0.559016994374947     
 -8.363261916756691E-002  0.380615500571016      -5.877689988772478E-002
 -0.532654390951944     
  0.955162973124140      -0.423704436434061      -0.293892626146237     
 -0.142339605329187      -2.131266594940200E-003 -0.135548507453028     
 -0.279542472641645     
   1.00000000000000      -0.423704436434061       0.000000000000000E+000
  0.000000000000000E+000  0.000000000000000E+000  0.000000000000000E+000
  0.000000000000000E+000
  -1.00000000000000      -0.317774315082929       0.000000000000000E+000
  0.000000000000000E+000  0.000000000000000E+000  0.000000000000000E+000
  0.000000000000000E+000
 -0.955162973124140      -0.317774315082929       0.250000000000000     
  0.119451098066076      -2.208103685122808E-003  0.112673615487684     
  0.237760560633880     
 -0.848039647510822      -0.317774315082929       0.475528258147577     
  6.590241543077201E-002 -0.337127197847151       4.118168732582671E-002
  0.452894441244090     
 -0.741262543272473      -0.317774315082929       0.654508497187474     
  2.053343074853963E-002 -0.623479122021793      -1.283662912392878E-002
  0.637877128780510     
 -0.635605065171759      -0.317774315082929       0.769420884293814     
 -1.962076666653773E-002 -0.827535176810519      -5.075574481344256E-002
  0.764890278434265     
 -0.529610856542781      -0.317774315082929       0.809016994374947     
 -5.932163709540165E-002 -0.934029892726209      -8.151933988203407E-002
  0.815767925972046     
 -0.423704436434061      -0.317774315082929       0.769420884293813     
 -8.394027281396547E-002 -0.930344848699498      -0.106253724766169     
  0.780077028534419     
 -0.317774315082929      -0.317774315082929       0.654508497187474     
 -8.160203086795834E-002 -0.817667220975643      -0.109062145586034     
  0.661390886679588     
 -0.211850529508475      -0.317774315082929       0.475528258147577     
 -6.201948619692865E-002 -0.610005685620070      -8.500502181847633E-002
  0.472321306497898     
 -0.105925053478478      -0.317774315082929       0.250000000000000     
 -3.321546869662125E-002 -0.328279607211097      -4.609599237209396E-002
  0.240571323779124     
 -9.663058790326291E-019 -0.317774315082929       0.000000000000000E+000
  5.771137541547440E-016  9.067798973447908E-016  1.016146948242328E-015
  5.251559551457159E-017
  0.105925053478478      -0.317774315082929      -0.250000000000000     
  3.321546869662220E-002  0.328279607211098       4.609599237209609E-002
 -0.240571323779124     
  0.211850529508475      -0.317774315082929      -0.475528258147577     
  6.201948619692990E-002  0.610005685620072       8.500502181847802E-002
 -0.472321306497897     
  0.317774315082929      -0.317774315082929      -0.654508497187474     
  8.160203086795884E-002  0.817667220975643       0.109062145586035     
 -0.661390886679586     
  0.423704436434061      -0.317774315082929      -0.769420884293813     
  8.394027281396531E-002  0.930344848699498       0.106253724766169     
 -0.780077028534418     
  0.529610856542781      -0.317774315082929      -0.809016994374947     
  5.932163709540138E-002  0.934029892726207       8.151933988203365E-002
 -0.815767925972046     
  0.635605065171759      -0.317774315082929      -0.769420884293813     
  1.962076666653719E-002  0.827535176810519       5.075574481344247E-002
 -0.764890278434264     
  0.741262543272473      -0.317774315082929      -0.654508497187474     
 -2.053343074854030E-002  0.623479122021792       1.283662912393004E-002
 -0.637877128780508     
  0.848039647510822      -0.317774315082929      -0.475528258147577     
 -6.590241543077224E-002  0.337127197847151      -4.118168732582703E-002
 -0.452894441244089     
  0.955162973124140      -0.317774315082929      -0.250000000000000     
 -0.119451098066077       2.208103685122527E-003 -0.112673615487685     
 -0.237760560633881     
   1.00000000000000      -0.317774315082929       0.000000000000000E+000
  0.000000000000000E+000  0.000000000000000E+000  0.000000000000000E+000
  0.000000000000000E+000
  -1.00000000000000      -0.211850529508475       0.000000000000000E+000
  0.000000000000000E+000  0.000000000000000E+000  0.000000000000000E+000
  0.000000000000000E+000
 -0.955162973124140      -0.211850529508475       0.181635632001340     
  8.649316288903400E-002 -3.930639358270931E-003  8.103038935578413E-002
  0.171625866519604     
 -0.848039647510822      -0.211850529508475       0.345491502812526     
  4.694844662121540E-002 -0.252754604026139       2.712231502508570E-002
  0.325280960755727     
 -0.741262543272473      -0.211850529508475       0.475528258147577     
  1.330047193238710E-002 -0.465812718471173      -1.385962393649338E-002
  0.457235784798351     
 -0.635605065171759      -0.211850529508475       0.559016994374947     
 -1.651550108958965E-002 -0.617743206482863      -4.274231431596778E-002
  0.547622583773560     
 -0.529610856542781      -0.211850529508475       0.587785252292473     
 -4.596753779746145E-002 -0.697013698931063      -6.577994808973842E-002
  0.583436118625102     
 -0.423704436434061      -0.211850529508475       0.559016994374947     