 VARIABLES = "x1", "x2"
 ZONE I=         3 F=POINT
   1.0000000000000000        0.0000000000000000   
   0.0000000000000000        0.0000000000000000 
   6.1232339957367660E-017   1.0000000000000000 
