 VARIABLES = "x1", "x2"
 ZONE I=         201 F=POINT
   1.5782982619848627       0.87119148079831532     
   1.5804951447703366       0.91220744418274102     
   1.5811322696634136       0.95232316895189784     
   1.5802090078987447       0.99149906572866864     
   1.5777262706242257        1.0296964726326980     
   1.5736865080018014        1.0668776934350008     
   1.5680937067894540        1.1030060347595880     
   1.5609533864067529        1.1380458422953998     
   1.5522725934878545        1.1719625359828059     
   1.5420598949273250        1.2047226441399488     
   1.5303253694256496        1.2362938364952525     
   1.5170805975427719        1.2666449560934996     
   1.5023386502694798        1.2957460500439810     
   1.4861140761279148        1.3235683990803855     
   1.4684228868139386        1.3500845459032469     
   1.4492825413955204        1.3752683222769844     
   1.4287119290827466        1.3990948748547913     
   1.4067313505864500        1.4215406897058880     
   1.3833624980838584        1.4425836155209320     
   1.3586284338110366        1.4622028854726874     
   1.3325535673032416        1.4803791377103752     
   1.3051636313056603        1.4970944344674819     
   1.2764856563782954        1.5123322797641705     
   1.2465479442200660        1.5260776356868213     
   1.2153800397384482        1.5383169372286347     
   1.1830127018922194        1.5490381056766580     
   1.1494778733360771        1.5582305605320155     
   1.1148086488970979        1.5658852299515831     
   1.0790392429141362        1.5719945597008034     
   1.0422049554724047        1.5765525206088022     
   1.0043421375665513        1.5795546145184527     
  0.96548815522661557        1.5809978787255132     
  0.92568135264226858        1.5808808889024588     
  0.88496101432172769        1.5792037605041200     
  0.84336732632268918        1.5759681486537445     
  0.80094133659354194        1.5711772465095883     
  0.75772491446399604        1.5648357821136547     
  0.71376070932511160        1.5569500137256884     
  0.66909210853949830        1.5475277236470282     
  0.62376319462322560        1.5365782105404144     
  0.57781870174170280        1.5241122802533329     
  0.53130397156245845        1.5101422351539469     
  0.48426490850838738        1.4946818619901454     
  0.43674793445562993        1.4777464182836877     
  0.38879994292078174        1.4593526172728715     
  0.34046825278265663        1.4395186114185834     
  0.29180056158426571        1.4182639744900134     
  0.24284489846109894        1.3956096822477062     
  0.19364957674217204        1.3715780917430198     
  0.14426314627059678        1.3461929192544129     
   9.4734345490753033E-002   1.3194792168823422     
   4.5112053349326400E-002   1.2914633478258652     
  -4.5547589423120026E-003   1.2621729603653435     
  -5.4217076236777122E-002   1.2316369605769297     
 -0.10382588782270299        1.1998854838057589     
 -0.15333223579239968        1.1669498649260015     
 -0.20268726335739431        1.1328626074171266     
 -0.25184226306418489        1.0976573512868915     
 -0.30074872486261650        1.0613688398727137     
 -0.34935838397944174        1.0240328855541949     
 -0.39762326854982805       0.98568633441062292     
 -0.44549574695979532       0.94636702985834031     
 -0.49292857485286601       0.90611377530386428     
 -0.53987494175454565       0.86496629584960461     
 -0.58628851726860487       0.82296519908998800     
 -0.63212349679959012       0.78015193503666247     
 -0.67733464675642918       0.73656875521233978     
 -0.72187734919252222       0.69225867095364646     
 -0.76570764583827133       0.64726541096412382     
 -0.80878228148258180       0.60163337815928009     
 -0.85105874666053727       0.55540760584627102     
 -0.89249531960510708       0.50863371328146412     
 -0.93305110742149167       0.46135786064974121     
 -0.97268608644347676       0.41362670350996683     
  -1.0113611417319570       0.36548734675158451     
  -1.0490381056766578       0.31698729810778081     
  -1.0856797956629609       0.26817442127108537     
  -1.1212500507666556       0.21909688865768492     
  -1.1557137674404021       0.16980313386706783     
  -1.1890369341566993       0.12034180388390406     
  -1.2211866649731522        7.0761711069349933E-002
  -1.2521312319869298        2.1111784989134755E-002
  -1.2818400966463714       -2.8558975874007669E-002
  -1.3102839398888546       -7.8201552475930899E-002
  -1.3374346910751638      -0.12776695358694667     
  -1.3632655556918285      -0.17720626414026350     
  -1.3877510417940710      -0.22647069350524554     
  -1.4108669851632762      -0.27551162363787579     
  -1.4325905731541613      -0.32428065706089804     
  -1.4529003672080987      -0.37272966462627888     
  -1.4717763240103887      -0.42081083301287098     
  -1.4891998152705894      -0.46847671191238677     
  -1.5051536461063908      -0.51568026085712393     
  -1.5196220720128870      -0.56237489564322829     
  -1.5325908144005029      -0.60851453430367664     
  -1.5440470746862365      -0.65405364258561660     
  -1.5539795469243174      -0.69894727888717789     
  -1.5623784289638085      -0.74315113860940585     
  -1.5692354321221458      -0.78662159787954988     
  -1.5745437893650682      -0.82931575660256374     
  -1.5782982619848627      -0.87119148079831499     
  -1.5804951447703366      -0.91220744418274069     
  -1.5811322696634136      -0.95232316895189784     
  -1.5802090078987447      -0.99149906572866831     
  -1.5777262706242257       -1.0296964726326980     
  -1.5736865080018014       -1.0668776934350006     
  -1.5680937067894538       -1.1030060347595880     
  -1.5609533864067529       -1.1380458422953998     
  -1.5522725934878545       -1.1719625359828059     
  -1.5420598949273252       -1.2047226441399483     
  -1.5303253694256498       -1.2362938364952527     
  -1.5170805975427719       -1.2666449560934998     
  -1.5023386502694798       -1.2957460500439810     
  -1.4861140761279150       -1.3235683990803853     
  -1.4684228868139388       -1.3500845459032467     
  -1.4492825413955202       -1.3752683222769846     
  -1.4287119290827464       -1.3990948748547913     
  -1.4067313505864498       -1.4215406897058878     
  -1.3833624980838584       -1.4425836155209317     
  -1.3586284338110366       -1.4622028854726870     
  -1.3325535673032423       -1.4803791377103750     
  -1.3051636313056605       -1.4970944344674821     
  -1.2764856563782954       -1.5123322797641705     
  -1.2465479442200660       -1.5260776356868211     
  -1.2153800397384487       -1.5383169372286345     
  -1.1830127018922199       -1.5490381056766578     
  -1.1494778733360771       -1.5582305605320155     
  -1.1148086488970979       -1.5658852299515831     
  -1.0790392429141358       -1.5719945597008036     
  -1.0422049554724049       -1.5765525206088025     
  -1.0043421375665513       -1.5795546145184527     
 -0.96548815522661591       -1.5809978787255132     
 -0.92568135264226803       -1.5808808889024588     
 -0.88496101432172736       -1.5792037605041200     
 -0.84336732632268940       -1.5759681486537447     
 -0.80094133659354205       -1.5711772465095881     
 -0.75772491446399515       -1.5648357821136545     
 -0.71376070932511115       -1.5569500137256882     
 -0.66909210853949785       -1.5475277236470280     
 -0.62376319462322538       -1.5365782105404144     
 -0.57781870174170280       -1.5241122802533327     
 -0.53130397156245879       -1.5101422351539469     
 -0.48426490850838688       -1.4946818619901452     
 -0.43674793445562965       -1.4777464182836877     
 -0.38879994292078163       -1.4593526172728715     
 -0.34046825278265674       -1.4395186114185834     
 -0.29180056158426582       -1.4182639744900136     
 -0.24284489846109852       -1.3956096822477060     
 -0.19364957674217145       -1.3715780917430196     
 -0.14426314627059661       -1.3461929192544126     
  -9.4734345490753311E-002  -1.3194792168823422     
  -4.5112053349326900E-002  -1.2914633478258657     
   4.5547589423111847E-003  -1.2621729603653442     
   5.4217076236777198E-002  -1.2316369605769295     
  0.10382588782270316       -1.1998854838057589     
  0.15333223579239955       -1.1669498649260015     
  0.20268726335739382       -1.1328626074171269     
  0.25184226306418428       -1.0976573512868919     
  0.30074872486261678       -1.0613688398727137     
  0.34935838397944180       -1.0240328855541949     
  0.39762326854982810      -0.98568633441062281     
  0.44549574695979477      -0.94636702985834065     
  0.49292857485286556      -0.90611377530386472     
  0.53987494175454454      -0.86496629584960560     
  0.58628851726860332      -0.82296519908998933     
  0.63212349679958846      -0.78015193503666391     
  0.67733464675642974      -0.73656875521233933     
  0.72187734919252267      -0.69225867095364602     
  0.76570764583827133      -0.64726541096412382     
  0.80878228148258180      -0.60163337815928009     
  0.85105874666053716      -0.55540760584627136     
  0.89249531960510620      -0.50863371328146489     
  0.93305110742149122      -0.46135786064974216     
  0.97268608644347598      -0.41362670350996766     
   1.0113611417319557      -0.36548734675158584     
   1.0490381056766567      -0.31698729810778253     
   1.0856797956629607      -0.26817442127108559     
   1.1212500507666556      -0.21909688865768448     
   1.1557137674404023      -0.16980313386706741     
   1.1890369341566991      -0.12034180388390429     
   1.2211866649731522       -7.0761711069350017E-002
   1.2521312319869295       -2.1111784989134991E-002
   1.2818400966463712        2.8558975874007322E-002
   1.3102839398888535        7.8201552475929054E-002
   1.3374346910751629       0.12776695358694526     
   1.3632655556918285       0.17720626414026339     
   1.3877510417940708       0.22647069350524526     
   1.4108669851632767       0.27551162363787707     
   1.4325905731541615       0.32428065706089843     
   1.4529003672080987       0.37272966462627877     
   1.4717763240103887       0.42081083301287087     
   1.4891998152705894       0.46847671191238649     
   1.5051536461063908       0.51568026085712393     
   1.5196220720128868       0.56237489564322729     
   1.5325908144005029       0.60851453430367641     
   1.5440470746862365       0.65405364258561638     
   1.5539795469243174       0.69894727888717767     
   1.5623784289638083       0.74315113860940507     
   1.5692354321221458       0.78662159787955033     
   1.5745437893650682       0.82931575660256363     
   1.5782982619848627       0.87119148079831499     
