 VARIABLES = "y21", "y22"
 ZONE I=         201 F=POINT
  0.50000000000000011        1.7320508075688772     
  0.47255076486905412        1.7626069041299843     
  0.44463517918492762        1.7914235204788258     
  0.41628079226040127        1.8184722180941371     
  0.38751558645210310        1.8437263031770010     
  0.35836794954530043        1.8671608529944035     
  0.32886664673858340        1.8887527404749620     
  0.29904079225608682        1.9084806570325537     
  0.26891982061526581        1.9263251335953162     
  0.23853345757858099        1.9422685598192722     
  0.20791169081775948        1.9562952014676112     
  0.17708474031958343        1.9683912159384838     
  0.14608302856241182        1.9785446659259767     
  0.11493715049286674        1.9867455312007929     
   8.3677843332315635E-002   1.9929857184990087     
   5.2335956242944022E-002   1.9972590695091477     
   2.0942419883357051E-002   1.9995613669496910     
  -1.0471784116245669E-002   1.9998903387310245     
  -4.1875653729199526E-002   1.9982456601977168     
  -7.3238197127631535E-002   1.9946289544489164     
 -0.10452846326765332        1.9890437907365468     
 -0.13571557243430427        1.9814956809428872     
 -0.16676874671610206        1.9719920741410097     
 -0.19765734037912594        1.9605423492434439     
 -0.22835087011065558        1.9471578057463206     
 -0.25881904510252057        1.9318516525781368     
 -0.28903179694447151        1.9146389950641347     
 -0.31895930929806976        1.8955368200191716     
 -0.34857204732181502        1.8745639789837831     
 -0.37784078681846694        1.8517411696199895     
 -0.40673664307579999        1.8270909152852020     
 -0.43523109937232729        1.8006375428043873     
 -0.46329603511986162        1.7724071584624297     
 -0.49090375361514071        1.7424276222403789     
 -0.51802700937313018        1.7107285203210132     
 -0.54463903501502697        1.6773411358908483     
 -0.57071356768443160        1.6422984182674083     
 -0.59622487496561571        1.6056349503822291     
 -0.62114778027831019        1.5673869146516799     
 -0.64545768772395040        1.5275920572692847     
 -0.66913060635885813        1.4862896509547887     
 -0.69214317387040658        1.4435204561967248     
 -0.71447267963280325        1.3993266810267309     
 -0.73609708711973409        1.3537519393653217     
 -0.75699505565175629        1.3068412079802112     
 -0.77714596145697079        1.2586407820996752     
 -0.79652991802419604        1.2091982297247503     
 -0.81512779572855421        1.1585623446853577     
 -0.83292124071009932        1.1067830984866887     
 -0.84989269298686387        1.0539115909933556     
 -0.86602540378443860        1.0000000000000002     
 -0.88130345206499217       0.94510152973810835     
 -0.89571176023941279       0.88927035836985513     
 -0.90923610904706853       0.83256158452080242     
 -0.92186315158850052       0.77503117290420642     
 -0.93358042649720174       0.71673589909060087     
 -0.94437637023748100       0.65773329347716680     
 -0.95424032851627683       0.59808158451217386     
 -0.96316256679765810       0.53783964123053152     
 -0.97113427990963597       0.47706691515716215     
 -0.97814760073380558       0.41582338163551946     
 -0.98419560796924188       0.35416948063916687     
 -0.98927233296298822       0.29216605712482391     
 -0.99337276560039645       0.22987430098573333     
 -0.99649285924950437       0.16735568666463094     
 -0.99862953475457394       0.10467191248588800     
 -0.99978068347484550        4.1884839766713838E-002
 -0.99994516936551214       -2.0943568232491359E-002
 -0.99912283009885838       -8.3751307458399343E-002
 -0.99731447722445810      -0.14647639425526307     
 -0.99452189536827329      -0.20905692653530644     
 -0.99074784047144360      -0.27143114486860881     
 -0.98599603707050487      -0.33353749343220424     
 -0.98027117462172186      -0.39531468075825166     
 -0.97357890287316029      -0.45670174022131121     
 -0.96592582628906831      -0.51763809020504126     
 -0.95731949753206735      -0.57806359388894246     
 -0.94776841000958589      -0.63791861859613985     
 -0.93728198949189168      -0.69714409464363003     
 -0.92587058480999473      -0.75568157363693433     
 -0.91354545764260109      -0.81347328615159986     
 -0.90031877140219374      -0.87046219874465447     
 -0.88620357923121496      -0.92659207023972245     
 -0.87121381112018936      -0.98180750723028198     
 -0.85536426016050671       -1.0360540187462604     
 -0.83867056794542416       -1.0892780700300537     
 -0.82114920913370426       -1.1414271353688628     
 -0.80281747519111490       -1.1924497499312305     
 -0.78369345732584006       -1.2422955605566204     
 -0.76379602863464224       -1.2909153754479010     
 -0.74314482547739436       -1.3382612127177160     
 -0.72176022809836249       -1.3842863477408129     
 -0.69966334051336587       -1.4289453592656058     
 -0.67687596968266095       -1.4721941742394682     
 -0.65342060399010549       -1.5139901113035128     
 -0.62932039104983761       -1.5542919229139414     
 -0.60459911486237516       -1.5930598360483921     
 -0.57928117234267895       -1.6302555914571084     
 -0.55339154924334433       -1.6658424814201986     
 -0.52695579549667759       -1.6997853859737277     
 -0.50000000000000022       -1.7320508075688770     
 -0.47255076486905440       -1.7626069041299841     
 -0.44463517918492762       -1.7914235204788258     
 -0.41628079226040149       -1.8184722180941368     
 -0.38751558645210310       -1.8437263031770010     
 -0.35836794954530055       -1.8671608529944033     
 -0.32886664673858323       -1.8887527404749620     
 -0.29904079225608682       -1.9084806570325537     
 -0.26891982061526604       -1.9263251335953162     
 -0.23853345757858138       -1.9422685598192719     
 -0.20791169081775962       -1.9562952014676114     
 -0.17708474031958332       -1.9683912159384840     
 -0.14608302856241182       -1.9785446659259767     
 -0.11493715049286699       -1.9867455312007929     
  -8.3677843332316038E-002  -1.9929857184990087     
  -5.2335956242943620E-002  -1.9972590695091477     
  -2.0942419883356947E-002  -1.9995613669496908     
   1.0471784116245572E-002  -1.9998903387310243     
   4.1875653729199276E-002  -1.9982456601977168     
   7.3238197127631133E-002  -1.9946289544489162     
  0.10452846326765278       -1.9890437907365470     
  0.13571557243430438       -1.9814956809428874     
  0.16676874671610206       -1.9719920741410097     
  0.19765734037912580       -1.9605423492434437     
  0.22835087011065527       -1.9471578057463208     
  0.25881904510252013       -1.9318516525781368     
  0.28903179694447156       -1.9146389950641347     
  0.31895930929806976       -1.8955368200191716     
  0.34857204732181535       -1.8745639789837829     
  0.37784078681846706       -1.8517411696199897     
  0.40673664307579999       -1.8270909152852020     
  0.43523109937232707       -1.8006375428043875     
  0.46329603511986195       -1.7724071584624292     
  0.49090375361514094       -1.7424276222403787     
  0.51802700937313007       -1.7107285203210134     
  0.54463903501502686       -1.6773411358908483     
  0.57071356768443204       -1.6422984182674076     
  0.59622487496561594       -1.6056349503822287     
  0.62114778027831041       -1.5673869146516795     
  0.64545768772395051       -1.5275920572692845     
  0.66913060635885802       -1.4862896509547887     
  0.69214317387040647       -1.4435204561967250     
  0.71447267963280348       -1.3993266810267304     
  0.73609708711973432       -1.3537519393653215     
  0.75699505565175640       -1.3068412079802112     
  0.77714596145697068       -1.2586407820996752     
  0.79652991802419604       -1.2091982297247506     
  0.81512779572855432       -1.1585623446853572     
  0.83292124071009954       -1.1067830984866880     
  0.84989269298686387       -1.0539115909933554     
  0.86602540378443849       -1.0000000000000004     
  0.88130345206499205      -0.94510152973810890     
  0.89571176023941257      -0.88927035836985613     
  0.90923610904706853      -0.83256158452080231     
  0.92186315158850052      -0.77503117290420620     
  0.93358042649720163      -0.71673589909060109     
  0.94437637023748089      -0.65773329347716736     
  0.95424032851627671      -0.59808158451217464     
  0.96316256679765822      -0.53783964123053130     
  0.97113427990963597      -0.47706691515716204     
  0.97814760073380558      -0.41582338163551935     
  0.98419560796924177      -0.35416948063916753     
  0.98927233296298822      -0.29216605712482457     
  0.99337276560039633      -0.22987430098573489     
  0.99649285924950426      -0.16735568666463305     
  0.99862953475457383      -0.10467191248589011     
  0.99978068347484550       -4.1884839766713172E-002
  0.99994516936551203        2.0943568232492025E-002
  0.99912283009885838        8.3751307458399343E-002
  0.99731447722445810       0.14647639425526307     
  0.99452189536827340       0.20905692653530611     
  0.99074784047144371       0.27143114486860759     
  0.98599603707050509       0.33353749343220324     
  0.98027117462172197       0.39531468075825044     
  0.97357890287316040       0.45670174022130933     
  0.96592582628906865       0.51763809020503915     
  0.95731949753206735       0.57806359388894213     
  0.94776841000958567       0.63791861859614019     
  0.93728198949189157       0.69714409464363047     
  0.92587058480999485       0.75568157363693400     
  0.91354545764260109       0.81347328615159975     
  0.90031877140219374       0.87046219874465414     
  0.88620357923121507       0.92659207023972212     
  0.87121381112018992       0.98180750723027999     
  0.85536426016050715        1.0360540187462588     
  0.83867056794542427        1.0892780700300537     
  0.82114920913370437        1.1414271353688625     
  0.80281747519111446        1.1924497499312319     
  0.78369345732583984        1.2422955605566208     
  0.76379602863464235        1.2909153754479008     
  0.74314482547739447        1.3382612127177160     
  0.72176022809836260        1.3842863477408127     
  0.69966334051336587        1.4289453592656058     
  0.67687596968266139        1.4721941742394673     
  0.65342060399010560        1.5139901113035126     
  0.62932039104983772        1.5542919229139411     
  0.60459911486237528        1.5930598360483919     
  0.57928117234267940        1.6302555914571077     
  0.55339154924334411        1.6658424814201991     
  0.52695579549667770        1.6997853859737277     
  0.50000000000000033        1.7320508075688770     
