 VARIABLES = "x1", "x2"
 ZONE I=           3 F=POINT
   1.5782982619848627       0.87119148079831532     
   0.0000000000000000        0.0000000000000000     
   9.4734345490753033E-002   1.3194792168823422     
