 VARIABLES =  $x$  W
 ZONE I=          41 ,DATAPACKING=POINT
 -0.100000000000000E+01  0.000000000000000E+00
 -0.978226538838537E+00 -0.151189104287205E-02
 -0.926206016243102E+00 -0.155934013080699E-01
 -0.874353623385414E+00 -0.404099282580872E-01
 -0.823044935991433E+00 -0.713752542546274E-01
 -0.771572727718090E+00 -0.105292430993097E+00
 -0.720143150808558E+00 -0.139068323849625E+00
 -0.668702063952709E+00 -0.170308911460567E+00
 -0.617264054974525E+00 -0.197079728812360E+00
 -0.565825220835437E+00 -0.217926161135049E+00
 -0.514386607765533E+00 -0.231822909456173E+00
 -0.462947935458022E+00 -0.238141439886825E+00
 -0.411509279023015E+00 -0.236613212852532E+00
 -0.360070618334971E+00 -0.227293818263170E+00
 -0.308631958786524E+00 -0.210526940895635E+00
 -0.257193298932723E+00 -0.186908349541860E+00
 -0.205754639160742E+00 -0.157249885902760E+00
 -0.154315979366837E+00 -0.122543451905089E+00
 -0.102877319578805E+00 -0.839249978666649E-01
 -0.514386597892067E-01 -0.426385103282467E-01
  0.102440335561230E-17 -0.482949942166422E-14
  0.514386597892067E-01  0.426385103282370E-01
  0.102877319578805E+00  0.839249978666553E-01
  0.154315979366837E+00  0.122543451905079E+00
  0.205754639160742E+00  0.157249885902750E+00
  0.257193298932723E+00  0.186908349541850E+00
  0.308631958786524E+00  0.210526940895626E+00
  0.360070618334971E+00  0.227293818263161E+00
  0.411509279023015E+00  0.236613212852524E+00
  0.462947935458022E+00  0.238141439886817E+00
  0.514386607765533E+00  0.231822909456166E+00
  0.565825220835437E+00  0.217926161135044E+00
  0.617264054974525E+00  0.197079728812356E+00
  0.668702063952709E+00  0.170308911460563E+00
  0.720143150808558E+00  0.139068323849622E+00
  0.771572727718090E+00  0.105292430993096E+00
  0.823044935991433E+00  0.713752542546263E-01
  0.874353623385414E+00  0.404099282580866E-01
  0.926206016243102E+00  0.155934013080697E-01
  0.978226538838537E+00  0.151189104287206E-02
  0.100000000000000E+01  0.000000000000000E+00
