 VARIABLES =  $x$  M
 ZONE I=          41 ,DATAPACKING=POINT
 -0.100000000000000E+01 -0.666672591083663E+01
 -0.978226538838537E+00 -0.581931831429013E+01
 -0.926206016243102E+00 -0.398054230765484E+01
 -0.874353623385414E+00 -0.239715431942511E+01
 -0.823044935991433E+00 -0.106181742296686E+01
 -0.771572727718090E+00  0.600794259337057E-01
 -0.720143150808558E+00  0.976877637078112E+00
 -0.668702063952709E+00  0.170334013181327E+01
 -0.617264054974525E+00  0.225282380458149E+01
 -0.565825220835437E+00  0.263899246646513E+01
 -0.514386607765533E+00  0.287544568309185E+01
 -0.462947935458022E+00  0.297579579938664E+01
 -0.411509279023015E+00  0.295365283245741E+01
 -0.360070618334971E+00  0.282262715468326E+01
 -0.308631958786524E+00  0.259632910843765E+01
 -0.257193298932723E+00  0.228836902847613E+01
 -0.205754639160742E+00  0.191235725530622E+01
 -0.154315979366837E+00  0.148190412702982E+01
 -0.102877319578805E+00  0.101061998259019E+01
 -0.514386597892067E-01  0.512115160661846E+00
  0.102440335561230E-17  0.114889363363147E-13
  0.514386597892067E-01 -0.512115160661823E+00
  0.102877319578805E+00 -0.101061998259017E+01
  0.154315979366837E+00 -0.148190412702980E+01
  0.205754639160742E+00 -0.191235725530620E+01
  0.257193298932723E+00 -0.228836902847611E+01
  0.308631958786524E+00 -0.259632910843763E+01
  0.360070618334971E+00 -0.282262715468324E+01
  0.411509279023015E+00 -0.295365283245739E+01
  0.462947935458022E+00 -0.297579579938663E+01
  0.514386607765533E+00 -0.287544568309186E+01
  0.565825220835437E+00 -0.263899246646514E+01
  0.617264054974525E+00 -0.225282380458151E+01
  0.668702063952709E+00 -0.170334013181330E+01
  0.720143150808558E+00 -0.976877637078161E+00
  0.771572727718090E+00 -0.600794259337662E-01
  0.823044935991433E+00  0.106181742296679E+01
  0.874353623385414E+00  0.239715431942503E+01
  0.926206016243102E+00  0.398054230765475E+01
  0.978226538838537E+00  0.581931831429002E+01
  0.100000000000000E+01  0.666672591083652E+01
