 VARIABLES =  $x$  W
 ZONE I=          41 ,DATAPACKING=POINT
 -0.100000000000000E+01  0.000000000000000E+00
 -0.978226538838537E+00 -0.151189104293019E-02
 -0.926206016243102E+00 -0.155934013085148E-01
 -0.874353623385414E+00 -0.404099282588173E-01
 -0.823044935991433E+00 -0.713752542551416E-01
 -0.771572727718090E+00 -0.105292430992812E+00
 -0.720143150808558E+00 -0.139068323848050E+00
 -0.668702063952709E+00 -0.170308911457280E+00
 -0.617264054974525E+00 -0.197079728807098E+00
 -0.565825220835437E+00 -0.217926161127728E+00
 -0.514386607765533E+00 -0.231822909446897E+00
 -0.462947935458022E+00 -0.238141439875894E+00
 -0.411509279023015E+00 -0.236613212840517E+00
 -0.360070618334971E+00 -0.227293818250799E+00
 -0.308631958786524E+00 -0.210526940883652E+00
 -0.257193298932723E+00 -0.186908349530907E+00
 -0.205754639160742E+00 -0.157249885893369E+00
 -0.154315979366837E+00 -0.122543451897684E+00
 -0.102877319578805E+00 -0.839249978615593E-01
 -0.514386597892067E-01 -0.426385103256443E-01
  0.102440335561230E-17 -0.702252175589195E-14
  0.514386597892067E-01  0.426385103256303E-01
  0.102877319578805E+00  0.839249978615454E-01
  0.154315979366837E+00  0.122543451897670E+00
  0.205754639160742E+00  0.157249885893356E+00
  0.257193298932723E+00  0.186908349530894E+00
  0.308631958786524E+00  0.210526940883639E+00
  0.360070618334971E+00  0.227293818250787E+00
  0.411509279023015E+00  0.236613212840506E+00
  0.462947935458022E+00  0.238141439875884E+00
  0.514386607765533E+00  0.231822909446888E+00
  0.565825220835437E+00  0.217926161127720E+00
  0.617264054974525E+00  0.197079728807091E+00
  0.668702063952709E+00  0.170308911457275E+00
  0.720143150808558E+00  0.139068323848047E+00
  0.771572727718090E+00  0.105292430992809E+00
  0.823044935991433E+00  0.713752542551400E-01
  0.874353623385414E+00  0.404099282588164E-01
  0.926206016243102E+00  0.155934013085144E-01
  0.978226538838537E+00  0.151189104293021E-02
  0.100000000000000E+01  0.000000000000000E+00
