 VARIABLES =  $x$  M
 ZONE I=          41 ,DATAPACKING=POINT
 -0.100000000000000E+01 -0.666672591057434E+01
 -0.978226538838537E+00 -0.581931831411695E+01
 -0.926206016243102E+00 -0.398054230769764E+01
 -0.874353623385414E+00 -0.239715431962352E+01
 -0.823044935991433E+00 -0.106181742319301E+01
 -0.771572727718090E+00  0.600794257495962E-01
 -0.720143150808558E+00  0.976877636915151E+00
 -0.668702063952709E+00  0.170334013171327E+01
 -0.617264054974525E+00  0.225282380454972E+01
 -0.565825220835437E+00  0.263899246650452E+01
 -0.514386607765533E+00  0.287544568320222E+01
 -0.462947935458022E+00  0.297579579960606E+01
 -0.411509279023015E+00  0.295365283273728E+01
 -0.360070618334971E+00  0.282262715496808E+01
 -0.308631958786524E+00  0.259632910868068E+01
 -0.257193298932723E+00  0.228836902867708E+01
 -0.205754639160742E+00  0.191235725546616E+01
 -0.154315979366837E+00  0.148190412714852E+01
 -0.102877319578805E+00  0.101061998266701E+01
 -0.514386597892067E-01  0.512115160700060E+00
  0.102440335561230E-17 -0.592213213214535E-16
  0.514386597892067E-01 -0.512115160700060E+00
  0.102877319578805E+00 -0.101061998266701E+01
  0.154315979366837E+00 -0.148190412714852E+01
  0.205754639160742E+00 -0.191235725546616E+01
  0.257193298932723E+00 -0.228836902867709E+01
  0.308631958786524E+00 -0.259632910868069E+01
  0.360070618334971E+00 -0.282262715496809E+01
  0.411509279023015E+00 -0.295365283273729E+01
  0.462947935458022E+00 -0.297579579960608E+01
  0.514386607765533E+00 -0.287544568320223E+01
  0.565825220835437E+00 -0.263899246650454E+01
  0.617264054974525E+00 -0.225282380454974E+01
  0.668702063952709E+00 -0.170334013171329E+01
  0.720143150808558E+00 -0.976877636915182E+00
  0.771572727718090E+00 -0.600794257496297E-01
  0.823044935991433E+00  0.106181742319297E+01
  0.874353623385414E+00  0.239715431962348E+01
  0.926206016243102E+00  0.398054230769760E+01
  0.978226538838537E+00  0.581931831411690E+01
  0.100000000000000E+01  0.666672591057428E+01
