 VARIABLES = "x", "Error"
 ZONE DATAPACKING=POINT, I=          31
  -1.00000000000000       0.000000000000000E+000
 -0.979379415010631      -3.774758283725532E-015
 -0.923212679795809      -4.884981308350689E-015
 -0.847462182454319      -3.164135620181696E-015
 -0.775874793044802      -1.918170483561354E-015
 -0.705904367683394      -7.494005416219807E-016
 -0.635279297267199       2.220446049250313E-016
 -0.564624103392663       9.992007221626409E-016
 -0.494074622530628       1.387778780781446E-015
 -0.423492904868026       1.554312234475219E-015
 -0.352906535644272       1.498801083243961E-015
 -0.282326567817734       1.276756478318930E-015
 -0.211745078417115       8.881784197001252E-016
 -0.141163163437180       3.608224830031759E-016
 -7.058162513745485E-002  1.387778780781446E-017
  1.581307967813983E-018 -4.154182777468218E-016
  7.058162513745486E-002 -8.187894806610529E-016
  0.141163163437180      -1.221245327087672E-015
  0.211745078417115      -1.387778780781446E-015
  0.282326567817734      -1.332267629550188E-015
  0.352906535644273      -1.110223024625157E-015
  0.423492904868026      -7.216449660063518E-016
  0.494074622530628      -2.775557561562891E-016
  0.564624103392663      -1.110223024625157E-016
  0.635279297267199       3.330669073875470E-016
  0.705904367683394       7.216449660063518E-016
  0.775874793044802       7.892991815694472E-016
  0.847462182454319       6.661338147750939E-016
  0.923212679795809       4.440892098500626E-016
  0.979379415010631       0.000000000000000E+000
   1.00000000000000       0.000000000000000E+000
