 VARIABLES =  $x$  P6
 ZONE I=          41 ,DATAPACKING=POINT
 -0.100000000000000E+01  0.100000000000000E+01
 -0.984758325607679E+00  0.703584236270228E+00
 -0.943242767719031E+00  0.109940146090802E+00
 -0.887251901498254E+00 -0.303656465376963E+00
 -0.834338190245875E+00 -0.414268990745193E+00
 -0.782619655538838E+00 -0.361353972161374E+00
 -0.730417240926093E+00 -0.222650378465708E+00
 -0.678192560597241E+00 -0.542056761377141E-01
 -0.626046017883863E+00  0.104548563479458E+00
 -0.573875647433213E+00  0.229137425615369E+00
 -0.521701838674410E+00  0.306311961820429E+00
 -0.469532761457858E+00  0.332101648108240E+00
 -0.417362560430774E+00  0.309568731890789E+00
 -0.365192043118735E+00  0.246788629456883E+00
 -0.313021802452072E+00  0.155080573940847E+00
 -0.260851513266127E+00  0.474323387666785E-01
 -0.208681199652018E+00 -0.628606253375201E-01
 -0.156510901712049E+00 -0.163348246642275E+00
 -0.104340601993189E+00 -0.243369166143620E+00
 -0.521703005103899E-01 -0.294784130922095E+00
 -0.564564649890631E-17 -0.312499999999999E+00
  0.521703005103898E-01 -0.294784130922095E+00
  0.104340601993189E+00 -0.243369166143620E+00
  0.156510901712049E+00 -0.163348246642274E+00
  0.208681199652018E+00 -0.628606253375186E-01
  0.260851513266127E+00  0.474323387666801E-01
  0.313021802452072E+00  0.155080573940848E+00
  0.365192043118735E+00  0.246788629456884E+00
  0.417362560430774E+00  0.309568731890789E+00
  0.469532761457858E+00  0.332101648108239E+00
  0.521701838674410E+00  0.306311961820428E+00
  0.573875647433213E+00  0.229137425615369E+00
  0.626046017883863E+00  0.104548563479459E+00
  0.678192560597241E+00 -0.542056761377128E-01
  0.730417240926093E+00 -0.222650378465706E+00
  0.782619655538838E+00 -0.361353972161372E+00
  0.834338190245875E+00 -0.414268990745192E+00
  0.887251901498254E+00 -0.303656465376963E+00
  0.943242767719031E+00  0.109940146090798E+00
  0.984758325607679E+00  0.703584236270223E+00
  0.100000000000000E+01  0.100000000000000E+01
