 VARIABLES =  $x$  E
 ZONE I=          41 ,DATAPACKING=POINT
 -0.100000000000000E+01  0.000000000000000E+00
 -0.984758325607679E+00  0.000000000000000E+00
 -0.943242767719031E+00 -0.323352455922077E-14
 -0.887251901498254E+00 -0.266453525910038E-14
 -0.834338190245875E+00  0.305311331771918E-14
 -0.782619655538838E+00  0.172084568816899E-14
 -0.730417240926093E+00  0.147104550762833E-14
 -0.678192560597241E+00  0.114491749414469E-14
 -0.626046017883863E+00  0.319189119579733E-15
 -0.573875647433213E+00  0.166533453693773E-15
 -0.521701838674410E+00  0.444089209850063E-15
 -0.469532761457858E+00 -0.555111512312578E-15
 -0.417362560430774E+00 -0.144328993201270E-14
 -0.365192043118735E+00 -0.188737914186277E-14
 -0.313021802452072E+00 -0.185962356624714E-14
 -0.260851513266127E+00 -0.176941794549634E-14
 -0.208681199652018E+00 -0.147104550762833E-14
 -0.156510901712049E+00 -0.915933995315754E-15
 -0.104340601993189E+00 -0.222044604925031E-15
 -0.521703005103899E-01  0.166533453693773E-15
 -0.564564649890631E-17  0.666133814775094E-15
  0.521703005103898E-01  0.832667268468867E-15
  0.104340601993189E+00  0.693889390390723E-15
  0.156510901712049E+00  0.360822483003176E-15
  0.208681199652018E+00  0.555111512312578E-16
  0.260851513266127E+00 -0.187350135405495E-15
  0.313021802452072E+00 -0.471844785465692E-15
  0.365192043118735E+00 -0.832667268468867E-15
  0.417362560430774E+00 -0.888178419700125E-15
  0.469532761457858E+00 -0.777156117237610E-15
  0.521701838674410E+00  0.555111512312578E-16
  0.573875647433213E+00  0.166533453693773E-15
  0.626046017883863E+00  0.860422844084496E-15
  0.678192560597241E+00  0.238004060904018E-14
  0.730417240926093E+00  0.310862446895044E-14
  0.782619655538838E+00  0.366373598126302E-14
  0.834338190245875E+00  0.432986979603811E-14
  0.887251901498254E+00 -0.316413562018170E-14
  0.943242767719031E+00 -0.692501611609941E-14
  0.984758325607679E+00 -0.488498130835069E-14
  0.100000000000000E+01  0.000000000000000E+00
