 VARIABLES = "x", "u"
 ZONE DATAPACKING=POINT, I=          31
  -1.00000000000000       -1.00000000000000     
 -0.970687581129010      -0.830506656637101     
 -0.900655199189473      -0.475500434675361     
 -0.830849161112357      -0.187585651728858     
 -0.761775083938307       3.751498804279992E-002
 -0.692480867555589       0.208558354744438     
 -0.623244043444308       0.329644466814127     
 -0.553991724122361       0.405927975893427     
 -0.484743548378627       0.442357199625845     
 -0.415494261765948       0.443918762735023     
 -0.346245272766571       0.415593189942144     
 -0.276996204018997       0.362361657962259     
 -0.207747156639139       0.289205397882419     
 -0.138498103535769       0.201105574075802     
 -6.924905195866818E-002  0.103043380277660     
 -1.130453260543423E-018  8.398532130081306E-016
  6.924905195866818E-002 -0.103043380277659     
  0.138498103535769      -0.201105574075800     
  0.207747156639139      -0.289205397882418     
  0.276996204018997      -0.362361657962259     
  0.346245272766571      -0.415593189942144     
  0.415494261765948      -0.443918762735023     
  0.484743548378627      -0.442357199625845     
  0.553991724122361      -0.405927975893426     
  0.623244043444308      -0.329644466814127     
  0.692480867555589      -0.208558354744438     
  0.761775083938307      -3.751498804279872E-002
  0.830849161112357       0.187585651728859     
  0.900655199189473       0.475500434675363     
  0.970687581129010       0.830506656637103     
   1.00000000000000        1.00000000000000     
