 VARIABLES = "X", "Y","U", "Error" 
 ZONE I=          21 , J=          21 ,DATAPACKING=POINT
  -1.00000000000000       -1.00000000000000       0.000000000000000E+000
 -1.499759782661858E-032
  -1.00000000000000      -0.955162973124140       0.000000000000000E+000
 -1.719334621520072E-017
  -1.00000000000000      -0.848039647510822       0.000000000000000E+000
 -5.626875267753299E-017
  -1.00000000000000      -0.741262543272473       0.000000000000000E+000
 -8.893969395746031E-017
  -1.00000000000000      -0.635605065171759       0.000000000000000E+000
 -1.115187128456746E-016
  -1.00000000000000      -0.529610856542781       0.000000000000000E+000
 -1.219351758093863E-016
  -1.00000000000000      -0.423704436434061       0.000000000000000E+000
 -1.189636247705683E-016
  -1.00000000000000      -0.317774315082929       0.000000000000000E+000
 -1.029389983651807E-016
  -1.00000000000000      -0.211850529508475       0.000000000000000E+000
 -7.562075479105549E-017
  -1.00000000000000      -0.105925053478478       0.000000000000000E+000
 -4.000498640280909E-017
  -1.00000000000000      -9.663058790326291E-019  0.000000000000000E+000
 -3.717708601332283E-034
  -1.00000000000000       0.105925053478478       0.000000000000000E+000
  4.000498640280909E-017
  -1.00000000000000       0.211850529508475       0.000000000000000E+000
  7.562075479105549E-017
  -1.00000000000000       0.317774315082929       0.000000000000000E+000
  1.029389983651807E-016
  -1.00000000000000       0.423704436434061       0.000000000000000E+000
  1.189636247705683E-016
  -1.00000000000000       0.529610856542781       0.000000000000000E+000
  1.219351758093863E-016
  -1.00000000000000       0.635605065171759       0.000000000000000E+000
  1.115187128456746E-016
  -1.00000000000000       0.741262543272473       0.000000000000000E+000
  8.893969395746031E-017
  -1.00000000000000       0.848039647510822       0.000000000000000E+000
  5.626875267753299E-017
  -1.00000000000000       0.955162973124140       0.000000000000000E+000
  1.719334621520072E-017
  -1.00000000000000        1.00000000000000       0.000000000000000E+000
  1.499759782661858E-032
 -0.955162973124140       -1.00000000000000       0.000000000000000E+000
 -1.719334621520072E-017
 -0.955162973124140      -0.955162973124140       1.971787775745303E-002
  7.310939139665296E-006
 -0.955162973124140      -0.848039647510822       6.452544847556865E-002
  1.857497044999157E-005
 -0.955162973124140      -0.741262543272473       0.101991999883190     
  3.094130815947671E-005
 -0.955162973124140      -0.635605065171759       0.127885297528301     
  3.950104840336199E-005
 -0.955162973124140      -0.529610856542781       0.139830910915855     
  4.361179377732061E-005
 -0.955162973124140      -0.423704436434061       0.136423484361357     
  4.279117692251866E-005
 -0.955162973124140      -0.317774315082929       0.118047109424654     
  3.715487064707979E-005
 -0.955162973124140      -0.211850529508475       8.671948934963551E-002
  2.735150141330855E-005
 -0.955162973124140      -0.105925053478478       4.587646900931663E-002
  1.448567641826326E-005
 -0.955162973124140      -9.663058790326291E-019  5.493386346939163E-017
  5.450766287481049E-017
 -0.955162973124140       0.105925053478478      -4.587646900931653E-002
 -1.448567641816612E-005
 -0.955162973124140       0.211850529508475      -8.671948934963526E-002
 -2.735150141305875E-005
 -0.955162973124140       0.317774315082929      -0.118047109424654     
 -3.715487064669121E-005
 -0.955162973124140       0.423704436434061      -0.136423484361357     
 -4.279117692213008E-005
 -0.955162973124140       0.529610856542781      -0.139830910915854     
 -4.361179377695978E-005
 -0.955162973124140       0.635605065171759      -0.127885297528301     
 -3.950104840297342E-005
 -0.955162973124140       0.741262543272473      -0.101991999883190     
 -3.094130815917140E-005
 -0.955162973124140       0.848039647510822      -6.452544847556853E-002
 -1.857497044986667E-005
 -0.955162973124140       0.955162973124140      -1.971787775745301E-002
 -7.310939139641009E-006
 -0.955162973124140        1.00000000000000       0.000000000000000E+000
  1.719334621520072E-017
 -0.848039647510822       -1.00000000000000       0.000000000000000E+000
 -5.626875267753299E-017
 -0.848039647510822      -0.955162973124140       6.452544847556864E-002
  1.857497044997769E-005
 -0.848039647510822      -0.848039647510822       0.211155254748712     
  4.327771823853244E-005
 -0.848039647510822      -0.741262543272473       0.333762061736257     
  7.358039656529813E-005
 -0.848039647510822      -0.635605065171759       0.418496162617516     
  9.456627034470921E-005
 -0.848039647510822      -0.529610856542781       0.457587390924693     
  1.047774002572721E-004
 -0.848039647510822      -0.423704436434061       0.446436813297612     
  1.030165640326652E-004
 -0.848039647510822      -0.317774315082929       0.386301343916341     
  8.955807935090432E-005
 -0.848039647510822      -0.211850529508475       0.283783782955628     
  6.597708980460304E-005
 -0.848039647510822      -0.105925053478478       0.150127705106992     
  3.495613538850861E-005
 -0.848039647510822      -9.663058790326291E-019  1.951173497360922E-016
  1.937225208559350E-016
 -0.848039647510822       0.105925053478478      -0.150127705106992     
 -3.495613538817555E-005
 -0.848039647510822       0.211850529508475      -0.283783782955628     
 -6.597708980404793E-005
 -0.848039647510822       0.317774315082929      -0.386301343916340     
 -8.955807934973858E-005
 -0.848039647510822       0.423704436434061      -0.446436813297610     
 -1.030165640312775E-004
 -0.848039647510822       0.529610856542781      -0.457587390924692     
 -1.047774002558843E-004
 -0.848039647510822       0.635605065171759      -0.418496162617515     
 -9.456627034354348E-005
 -0.848039647510822       0.741262543272473      -0.333762061736256     
 -7.358039656435444E-005
 -0.848039647510822       0.848039647510822      -0.211155254748711     
 -4.327771823817161E-005
 -0.848039647510822       0.955162973124140      -6.452544847556858E-002
 -1.857497044992218E-005
 -0.848039647510822        1.00000000000000       0.000000000000000E+000
  5.626875267753299E-017
 -0.741262543272473       -1.00000000000000       0.000000000000000E+000
 -8.893969395746031E-017
 -0.741262543272473      -0.955162973124140       0.101991999883190     
  3.094130815949059E-005
 -0.741262543272473      -0.848039647510822       0.333762061736257     
  7.358039656535365E-005
 -0.741262543272473      -0.741262543272473       0.527560225707301     
  1.244821506155569E-004
 -0.741262543272473      -0.635605065171759       0.661494984959553     
  1.597294281376893E-004
 -0.741262543272473      -0.529610856542781       0.723284443958537     
  1.768273582405389E-004
 -0.741262543272473      -0.423704436434061       0.705659309397080     
  1.737708806733851E-004
 -0.741262543272473      -0.317774315082929       0.610606319747053     
  1.510243905373798E-004
 -0.741262543272473      -0.211850529508475       0.448562175729826     
  1.112394064432531E-004
 -0.741262543272473      -0.105925053478478       0.237299007500565     
  5.893155165492825E-005
 -0.741262543272473      -9.663058790326291E-019  3.372702096137797E-016
  3.350655107743519E-016
 -0.741262543272473       0.105925053478478      -0.237299007500564     
 -5.893155165423436E-005
 -0.741262543272473       0.211850529508475      -0.448562175729825     
 -1.112394064423650E-004
 -0.741262543272473       0.317774315082929      -0.610606319747051     
 -1.510243905359365E-004
 -0.741262543272473       0.423704436434061      -0.705659309397078     
 -1.737708806714977E-004
 -0.741262543272473       0.529610856542781      -0.723284443958535     
 -1.768273582387625E-004
 -0.741262543272473       0.635605065171759      -0.661494984959552     
 -1.597294281362460E-004
 -0.741262543272473       0.741262543272473      -0.527560225707300     
 -1.244821506144467E-004
 -0.741262543272473       0.848039647510822      -0.333762061736256     
 -7.358039656485404E-005
 -0.741262543272473       0.955162973124140      -0.101991999883190     
 -3.094130815944895E-005
 -0.741262543272473        1.00000000000000       0.000000000000000E+000
  8.893969395746031E-017
 -0.635605065171759       -1.00000000000000       0.000000000000000E+000
 -1.115187128456746E-016
 -0.635605065171759      -0.955162973124140       0.127885297528301     
  3.950104840336199E-005
 -0.635605065171759      -0.848039647510822       0.418496162617516     
  9.456627034465370E-005
 -0.635605065171759      -0.741262543272473       0.661494984959553     
  1.597294281375783E-004
 -0.635605065171759      -0.635605065171759       0.829432534532566     
  2.048503041512939E-004
 -0.635605065171759      -0.529610856542781       0.906908840098897     
  2.267157963494748E-004
 -0.635605065171759      -0.423704436434061       0.884809110905349     
  2.227615952511419E-004
 -0.635605065171759      -0.317774315082929       0.765624470185744     
  1.935837184948719E-004
 -0.635605065171759      -0.211850529508475       0.562441244107767     
  1.425789342486272E-004
 -0.635605065171759      -0.105925053478478       0.297543476078919     
  7.553203711946344E-005
 -0.635605065171759      -9.663058790326291E-019  5.688006477880619E-016
  5.660362445632999E-016
 -0.635605065171759       0.105925053478478      -0.297543476078917     
 -7.553203711818668E-005
 -0.635605065171759       0.211850529508475      -0.562441244107766     
 -1.425789342470729E-004
 -0.635605065171759       0.317774315082929      -0.765624470185742     
 -1.935837184926514E-004
 -0.635605065171759       0.423704436434061      -0.884809110905346     
 -2.227615952485884E-004
 -0.635605065171759       0.529610856542781      -0.906908840098895     
 -2.267157963475874E-004
 -0.635605065171759       0.635605065171759      -0.829432534532564     
 -2.048503041491845E-004
 -0.635605065171759       0.741262543272473      -0.661494984959551     
 -1.597294281359130E-004
 -0.635605065171759       0.848039647510822      -0.418496162617515     
 -9.456627034382104E-005
 -0.635605065171759       0.955162973124140      -0.127885297528301     
 -3.950104840322322E-005
 -0.635605065171759        1.00000000000000       0.000000000000000E+000
  1.115187128456746E-016
 -0.529610856542781       -1.00000000000000       0.000000000000000E+000
 -1.219351758093863E-016
 -0.529610856542781      -0.955162973124140       0.139830910915855     
  4.361179377726510E-005
 -0.529610856542781      -0.848039647510822       0.457587390924693     
  1.047774002571611E-004
 -0.529610856542781      -0.741262543272473       0.723284443958537     
  1.768273582406499E-004
 -0.529610856542781      -0.635605065171759       0.906908840098897     
  2.267157963495858E-004
 -0.529610856542781      -0.529610856542781       0.991622115129026     
  2.508787782905531E-004
 -0.529610856542781      -0.423704436434061       0.967458076542870     
  2.464824584278436E-004
 -0.529610856542781      -0.317774315082929       0.837140540429566     
  2.141867289319199E-004
 -0.529610856542781      -0.211850529508475       0.614978211104112     
  1.577487284510903E-004
 -0.529610856542781      -0.105925053478478       0.325336657938400     
  8.356696533390329E-005
 -0.529610856542781      -9.663058790326291E-019  7.298735342364601E-016
  7.268509205008995E-016
 -0.529610856542781       0.105925053478478      -0.325336657938399     
 -8.356696533251551E-005
 -0.529610856542781       0.211850529508475      -0.614978211104110     
 -1.577487284490919E-004
 -0.529610856542781       0.317774315082929      -0.837140540429563     
 -2.141867289291444E-004
 -0.529610856542781       0.423704436434061      -0.967458076542866     
 -2.464824584244019E-004
 -0.529610856542781       0.529610856542781      -0.991622115129023     
 -2.508787782881106E-004
 -0.529610856542781       0.635605065171759      -0.906908840098895     
 -2.267157963472544E-004
 -0.529610856542781       0.741262543272473      -0.723284443958535     
 -1.768273582385405E-004
 -0.529610856542781       0.848039647510822      -0.457587390924692     
 -1.047774002562729E-004
 -0.529610856542781       0.955162973124140      -0.139830910915854     
 -4.361179377715407E-005
 -0.529610856542781        1.00000000000000       0.000000000000000E+000
  1.219351758093863E-016
 -0.423704436434061       -1.00000000000000       0.000000000000000E+000
 -1.189636247705683E-016
 -0.423704436434061      -0.955162973124140       0.136423484361357     
  4.279117692237988E-005
 -0.423704436434061      -0.848039647510822       0.446436813297612     
  1.030165640324432E-004
 -0.423704436434061      -0.741262543272473       0.705659309397079     
  1.737708806731630E-004
 -0.423704436434061      -0.635605065171759       0.884809110905349     
  2.227615952508089E-004
 -0.423704436434061      -0.529610856542781       0.967458076542869     
  2.464824584273995E-004
 -0.423704436434061      -0.423704436434061       0.943882871900851     
  2.421514226560451E-004
 -0.423704436434061      -0.317774315082929       0.816740938593528     
  2.104170163582664E-004
 -0.423704436434061      -0.211850529508475       0.599992303674724     
  1.549696008987800E-004
 -0.423704436434061      -0.105925053478478       0.317408791631599     
  8.209395680952580E-005
 -0.423704436434061      -9.663058790326291E-019  9.561224382263506E-016
  9.531734853595772E-016
 -0.423704436434061       0.105925053478478      -0.317408791631597     
 -8.209395680769394E-005
 -0.423704436434061       0.211850529508475      -0.599992303674722     
 -1.549696008966706E-004
 -0.423704436434061       0.317774315082929      -0.816740938593525     
 -2.104170163549357E-004
 -0.423704436434061       0.423704436434061      -0.943882871900848     
 -2.421514226527144E-004
 -0.423704436434061       0.529610856542781      -0.967458076542866     
 -2.464824584246239E-004
 -0.423704436434061       0.635605065171759      -0.884809110905346     
 -2.227615952484774E-004
 -0.423704436434061       0.741262543272473      -0.705659309397077     
 -1.737708806712757E-004
 -0.423704436434061       0.848039647510822      -0.446436813297611     
 -1.030165640317215E-004
 -0.423704436434061       0.955162973124140      -0.136423484361357     
 -4.279117692240764E-005
 -0.423704436434061        1.00000000000000       0.000000000000000E+000
  1.189636247705683E-016
 -0.317774315082929       -1.00000000000000       0.000000000000000E+000
 -1.029389983651807E-016
 -0.317774315082929      -0.955162973124140       0.118047109424654     
  3.715487064685774E-005
 -0.317774315082929      -0.848039647510822       0.386301343916341     
  8.955807935046023E-005
 -0.317774315082929      -0.741262543272473       0.610606319747052     
  1.510243905368247E-004
 -0.317774315082929      -0.635605065171759       0.765624470185744     
  1.935837184942057E-004
 -0.317774315082929      -0.529610856542781       0.837140540429565     
  2.141867289313648E-004
 -0.317774315082929      -0.423704436434061       0.816740938593528     
  2.104170163577113E-004
 -0.317774315082929      -0.317774315082929       0.706725146342999     
  1.828382395296924E-004
 -0.317774315082929      -0.211850529508475       0.519172761621889     
  1.346567332425330E-004
 -0.317774315082929      -0.105925053478478       0.274653521228826     
  7.133296605976724E-005
 -0.317774315082929      -9.663058790326291E-019  1.146374416499256E-015
  1.143822693189570E-015
 -0.317774315082929       0.105925053478478      -0.274653521228824     
 -7.133296605749129E-005
 -0.317774315082929       0.211850529508475      -0.519172761621886     
 -1.346567332398685E-004
 -0.317774315082929       0.317774315082929      -0.706725146342997     
 -1.828382395268058E-004
 -0.317774315082929       0.423704436434061      -0.816740938593525     
 -2.104170163546026E-004
 -0.317774315082929       0.529610856542781      -0.837140540429563     
 -2.141867289285893E-004
 -0.317774315082929       0.635605065171759      -0.765624470185741     
 -1.935837184917633E-004
 -0.317774315082929       0.741262543272473      -0.610606319747050     
 -1.510243905349373E-004
 -0.317774315082929       0.848039647510822      -0.386301343916340     
 -8.955807934940552E-005
 -0.317774315082929       0.955162973124140      -0.118047109424654     
 -3.715487064674672E-005
 -0.317774315082929        1.00000000000000       0.000000000000000E+000
  1.029389983651807E-016
 -0.211850529508475       -1.00000000000000       0.000000000000000E+000
 -7.562075479105549E-017
 -0.211850529508475      -0.955162973124140       8.671948934963537E-002
  2.735150141316978E-005
 -0.211850529508475      -0.848039647510822       0.283783782955628     
  6.597708980426997E-005
 -0.211850529508475      -0.741262543272473       0.448562175729825     
  1.112394064427535E-004
 -0.211850529508475      -0.635605065171759       0.562441244107767     
  1.425789342479611E-004
 -0.211850529508475      -0.529610856542781       0.614978211104112     
  1.577487284505352E-004
 -0.211850529508475      -0.423704436434061       0.599992303674723     
  1.549696008983359E-004
 -0.211850529508475      -0.317774315082929       0.519172761621889     
  1.346567332422000E-004
 -0.211850529508475      -0.211850529508475       0.381393470721797     
  9.917137610926385E-005
 -0.211850529508475      -0.105925053478478       0.201765322549262     
  5.253479754396828E-005
 -0.211850529508475      -9.663058790326291E-019  1.423374611016308E-015
  1.421500071281505E-015
 -0.211850529508475       0.105925053478478      -0.201765322549259     
 -5.253479754108170E-005
 -0.211850529508475       0.211850529508475      -0.381393470721794     
 -9.917137610626625E-005
 -0.211850529508475       0.317774315082929      -0.519172761621886     
 -1.346567332393134E-004
 -0.211850529508475       0.423704436434061      -0.599992303674721     
 -1.549696008956714E-004
 -0.211850529508475       0.529610856542781      -0.614978211104109     
 -1.577487284476486E-004
 -0.211850529508475       0.635605065171759      -0.562441244107764     
 -1.425789342455186E-004
 -0.211850529508475       0.741262543272473      -0.448562175729823     
 -1.112394064408662E-004
 -0.211850529508475       0.848039647510822      -0.283783782955627     
 -6.597708980321526E-005
 -0.211850529508475       0.955162973124140      -8.671948934963514E-002
 -2.735150141293385E-005
 -0.211850529508475        1.00000000000000       0.000000000000000E+000
  7.562075479105549E-017
 -0.105925053478478       -1.00000000000000       0.000000000000000E+000
 -4.000498640280909E-017
 -0.105925053478478      -0.955162973124140       4.587646900931654E-002
  1.448567641817305E-005
 -0.105925053478478      -0.848039647510822       0.150127705106992     
  3.495613538820330E-005
 -0.105925053478478      -0.741262543272473       0.237299007500565     
  5.893155165442865E-005
 -0.105925053478478      -0.635605065171759       0.297543476078918     
  7.553203711874179E-005
 -0.105925053478478      -0.529610856542781       0.325336657938400     
  8.356696533334818E-005
 -0.105925053478478      -0.423704436434061       0.317408791631598     
  8.209395680902620E-005
 -0.105925053478478      -0.317774315082929       0.274653521228826     
  7.133296605943418E-005
 -0.105925053478478      -0.211850529508475       0.201765322549261     
  5.253479754377399E-005
 -0.105925053478478      -0.105925053478478       0.106738181192158     
  2.782960182105831E-005
 -0.105925053478478      -9.663058790326291E-019  1.652890058482927E-015
  1.651898387124852E-015
 -0.105925053478478       0.105925053478478      -0.106738181192155     
 -2.782960181772764E-005
 -0.105925053478478       0.211850529508475      -0.201765322549258     
 -5.253479754052659E-005
 -0.105925053478478       0.317774315082929      -0.274653521228823     
 -7.133296605632555E-005
 -0.105925053478478       0.423704436434061      -0.317408791631595     
 -8.209395680625065E-005
 -0.105925053478478       0.529610856542781      -0.325336657938397     
 -8.356696533073915E-005
 -0.105925053478478       0.635605065171759      -0.297543476078916     
 -7.553203711657686E-005
 -0.105925053478478       0.741262543272473      -0.237299007500563     
 -5.893155165270780E-005
 -0.105925053478478       0.848039647510822      -0.150127705106991     
 -3.495613538725961E-005
 -0.105925053478478       0.955162973124140      -4.587646900931629E-002
 -1.448567641792325E-005
 -0.105925053478478        1.00000000000000       0.000000000000000E+000
  4.000498640280909E-017
 -9.663058790326291E-019  -1.00000000000000       0.000000000000000E+000
 -3.717708601332283E-034
 -9.663058790326291E-019 -0.955162973124140      -3.352211733626939E-017
 -3.394831793085053E-017
 -9.663058790326291E-019 -0.848039647510822      -1.057608667752100E-016
 -1.071556956553672E-016
 -9.663058790326291E-019 -0.741262543272473      -1.493832798044185E-016
 -1.515879786438463E-016
 -9.663058790326291E-019 -0.635605065171759      -2.017023370150064E-016
 -2.044667402397683E-016
 -9.663058790326291E-019 -0.529610856542781      -2.031950159030235E-017
 -2.334211532586301E-017
 -9.663058790326291E-019 -0.423704436434061       2.752494987090175E-016
  2.723005458422442E-016
 -9.663058790326291E-019 -0.317774315082929       6.538096656495469E-016
  6.512579423398611E-016
 -9.663058790326291E-019 -0.211850529508475       1.048470273552015E-015
  1.046595733817211E-015
 -9.663058790326291E-019 -0.105925053478478       1.461439812288987E-015
  1.460448140930911E-015
 -9.663058790326291E-019 -9.663058790326291E-019  1.879716752642980E-015
  1.879716752642980E-015
 -9.663058790326291E-019  0.105925053478478       2.218649057577883E-015
  2.219640728935959E-015
 -9.663058790326291E-019  0.211850529508475       2.403774007412523E-015
  2.405648547147326E-015
 -9.663058790326291E-019  0.317774315082929       2.419657174041244E-015
  2.422208897350930E-015
 -9.663058790326291E-019  0.423704436434061       2.409627291715970E-015
  2.412576244582743E-015
 -9.663058790326291E-019  0.529610856542781       2.266678012496516E-015
  2.269700626232077E-015
 -9.663058790326291E-019  0.635605065171759       1.947394453696307E-015
  1.950158856921070E-015
 -9.663058790326291E-019  0.741262543272473       1.524054802739446E-015
  1.526259501578874E-015
 -9.663058790326291E-019  0.848039647510822       9.611980341253221E-016
  9.625928630054794E-016
 -9.663058790326291E-019  0.955162973124140       3.019509525961579E-016
  3.023771531907390E-016
 -9.663058790326291E-019   1.00000000000000       0.000000000000000E+000
  3.717708601332283E-034
  0.105925053478478       -1.00000000000000       0.000000000000000E+000
  4.000498640280909E-017
  0.105925053478478      -0.955162973124140      -4.587646900931659E-002
 -1.448567641822857E-005
  0.105925053478478      -0.848039647510822      -0.150127705106992     
 -3.495613538836984E-005
  0.105925053478478      -0.741262543272473      -0.237299007500565     
 -5.893155165470620E-005
  0.105925053478478      -0.635605065171759      -0.297543476078918     
 -7.553203711907486E-005
  0.105925053478478      -0.529610856542781      -0.325336657938400     
 -8.356696533334818E-005
  0.105925053478478      -0.423704436434061      -0.317408791631598     
 -8.209395680847109E-005
  0.105925053478478      -0.317774315082929      -0.274653521228825     
 -7.133296605804640E-005
  0.105925053478478      -0.211850529508475      -0.201765322549259     
 -5.253479754163681E-005
  0.105925053478478      -0.105925053478478      -0.106738181192155     
 -2.782960181813010E-005
  0.105925053478478      -9.663058790326291E-019  2.028323268871967E-015
  2.029314940230043E-015
  0.105925053478478       0.105925053478478       0.106738181192159     
  2.782960182214078E-005
  0.105925053478478       0.211850529508475       0.201765322549263     
  5.253479754532830E-005
  0.105925053478478       0.317774315082929       0.274653521228828     
  7.133296606115502E-005
  0.105925053478478       0.423704436434061       0.317408791631600     
  8.209395681096909E-005
  0.105925053478478       0.529610856542781       0.325336657938402     
  8.356696533512453E-005
  0.105925053478478       0.635605065171759       0.297543476078920     
  7.553203712035161E-005
  0.105925053478478       0.741262543272473       0.237299007500566     
  5.893155165564989E-005
  0.105925053478478       0.848039647510822       0.150127705106993     
  3.495613538911924E-005
  0.105925053478478       0.955162973124140       4.587646900931688E-002
  1.448567641851306E-005
  0.105925053478478        1.00000000000000       0.000000000000000E+000
 -4.000498640280909E-017
  0.211850529508475       -1.00000000000000       0.000000000000000E+000
  7.562075479105549E-017
  0.211850529508475      -0.955162973124140      -8.671948934963540E-002
 -2.735150141319753E-005
  0.211850529508475      -0.848039647510822      -0.283783782955628     
 -6.597708980432548E-005
  0.211850529508475      -0.741262543272473      -0.448562175729825     
 -1.112394064427535E-004
  0.211850529508475      -0.635605065171759      -0.562441244107767     
 -1.425789342479611E-004
  0.211850529508475      -0.529610856542781      -0.614978211104112     
 -1.577487284502022E-004
  0.211850529508475      -0.423704436434061      -0.599992303674723     
 -1.549696008974477E-004
  0.211850529508475      -0.317774315082929      -0.519172761621887     
 -1.346567332407567E-004
  0.211850529508475      -0.211850529508475      -0.381393470721795     
 -9.917137610693239E-005
  0.211850529508475      -0.105925053478478      -0.201765322549259     
 -5.253479754097068E-005
  0.211850529508475      -9.663058790326291E-019  2.115322596342405E-015
  2.117197136077208E-015
  0.211850529508475       0.105925053478478       0.201765322549263     
  5.253479754513402E-005
  0.211850529508475       0.211850529508475       0.381393470721799     
  9.917137611070714E-005
  0.211850529508475       0.317774315082929       0.519172761621890     
  1.346567332437543E-004
  0.211850529508475       0.423704436434061       0.599992303674725     
  1.549696008995571E-004
  0.211850529508475       0.529610856542781       0.614978211104113     
  1.577487284512014E-004
  0.211850529508475       0.635605065171759       0.562441244107767     
  1.425789342486272E-004
  0.211850529508475       0.741262543272473       0.448562175729826     
  1.112394064432531E-004
  0.211850529508475       0.848039647510822       0.283783782955629     
  6.597708980482508E-005
  0.211850529508475       0.955162973124140       8.671948934963568E-002
  2.735150141347509E-005
  0.211850529508475        1.00000000000000       0.000000000000000E+000
 -7.562075479105549E-017
  0.317774315082929       -1.00000000000000       0.000000000000000E+000
  1.029389983651807E-016
  0.317774315082929      -0.955162973124140      -0.118047109424654     
 -3.715487064685774E-005
  0.317774315082929      -0.848039647510822      -0.386301343916341     
 -8.955807935029370E-005
  0.317774315082929      -0.741262543272473      -0.610606319747052     
 -1.510243905366027E-004
  0.317774315082929      -0.635605065171759      -0.765624470185743     
 -1.935837184937617E-004
  0.317774315082929      -0.529610856542781      -0.837140540429565     
 -2.141867289304766E-004
  0.317774315082929      -0.423704436434061      -0.816740938593526     
 -2.104170163563790E-004
  0.317774315082929      -0.317774315082929      -0.706725146342998     
 -1.828382395279160E-004
  0.317774315082929      -0.211850529508475      -0.519172761621887     
 -1.346567332402016E-004
  0.317774315082929      -0.105925053478478      -0.274653521228823     
 -7.133296605688066E-005
  0.317774315082929      -9.663058790326291E-019  2.089489965631054E-015
  2.092041688940740E-015
  0.317774315082929       0.105925053478478       0.274653521228828     
  7.133296606093298E-005
  0.317774315082929       0.211850529508475       0.519172761621890     
  1.346567332435322E-004
  0.317774315082929       0.317774315082929       0.706725146343000     
  1.828382395305805E-004
  0.317774315082929       0.423704436434061       0.816740938593528     
  2.104170163580443E-004
  0.317774315082929       0.529610856542781       0.837140540429565     
  2.141867289309207E-004
  0.317774315082929       0.635605065171759       0.765624470185743     
  1.935837184937617E-004
  0.317774315082929       0.741262543272473       0.610606319747052     
  1.510243905366027E-004
  0.317774315082929       0.848039647510822       0.386301343916341     
  8.955807935068227E-005
  0.317774315082929       0.955162973124140       0.118047109424654     
  3.715487064703815E-005
  0.317774315082929        1.00000000000000       0.000000000000000E+000
 -1.029389983651807E-016
  0.423704436434061       -1.00000000000000       0.000000000000000E+000
  1.189636247705683E-016
  0.423704436434061      -0.955162973124140      -0.136423484361357     
 -4.279117692224110E-005
  0.423704436434061      -0.848039647510822      -0.446436813297611     
 -1.030165640319436E-004
  0.423704436434061      -0.741262543272473      -0.705659309397079     
 -1.737708806724969E-004
  0.423704436434061      -0.635605065171759      -0.884809110905348     
 -2.227615952496986E-004
  0.423704436434061      -0.529610856542781      -0.967458076542868     
 -2.464824584259562E-004
  0.423704436434061      -0.423704436434061      -0.943882871900849     
 -2.421514226539356E-004
  0.423704436434061      -0.317774315082929      -0.816740938593526     
 -2.104170163556018E-004
  0.423704436434061      -0.211850529508475      -0.599992303674721     
 -1.549696008963375E-004
  0.423704436434061      -0.105925053478478      -0.317408791631596     
 -8.209395680680576E-005
  0.423704436434061      -9.663058790326291E-019  1.996673056295422E-015
  1.999622009162196E-015