 VARIABLES =  $x$  (a)
 ZONE I=         441 ,DATAPACKING=POINT
 -0.100000000000000E+01 -0.100000000000000E+01  0.000000000000000E+00
 -0.100000000000000E+01 -0.955162973124140E+00  0.000000000000000E+00
 -0.100000000000000E+01 -0.848039647510822E+00  0.000000000000000E+00
 -0.100000000000000E+01 -0.741262543272473E+00  0.000000000000000E+00
 -0.100000000000000E+01 -0.635605065171759E+00  0.000000000000000E+00
 -0.100000000000000E+01 -0.529610856542781E+00  0.000000000000000E+00
 -0.100000000000000E+01 -0.423704436434061E+00  0.000000000000000E+00
 -0.100000000000000E+01 -0.317774315082929E+00  0.000000000000000E+00
 -0.100000000000000E+01 -0.211850529508475E+00  0.000000000000000E+00
 -0.100000000000000E+01 -0.105925053478478E+00  0.000000000000000E+00
 -0.100000000000000E+01 -0.790519978293986E-17  0.000000000000000E+00
 -0.100000000000000E+01  0.105925053478478E+00  0.000000000000000E+00
 -0.100000000000000E+01  0.211850529508475E+00  0.000000000000000E+00
 -0.100000000000000E+01  0.317774315082929E+00  0.000000000000000E+00
 -0.100000000000000E+01  0.423704436434061E+00  0.000000000000000E+00
 -0.100000000000000E+01  0.529610856542781E+00  0.000000000000000E+00
 -0.100000000000000E+01  0.635605065171759E+00  0.000000000000000E+00
 -0.100000000000000E+01  0.741262543272473E+00  0.000000000000000E+00
 -0.100000000000000E+01  0.848039647510822E+00  0.000000000000000E+00
 -0.100000000000000E+01  0.955162973124140E+00  0.000000000000000E+00
 -0.100000000000000E+01  0.100000000000000E+01  0.000000000000000E+00
 -0.955162973124140E+00 -0.100000000000000E+01  0.000000000000000E+00
 -0.955162973124140E+00 -0.955162973124140E+00 -0.656077899645410E-02
 -0.955162973124140E+00 -0.848039647510822E+00 -0.197483227955022E-01
 -0.955162973124140E+00 -0.741262543272473E+00 -0.280349512949165E-01
 -0.955162973124140E+00 -0.635605065171759E+00 -0.316491110684225E-01
 -0.955162973124140E+00 -0.529610856542781E+00 -0.315480652305474E-01
 -0.955162973124140E+00 -0.423704436434061E+00 -0.285729056023101E-01
 -0.955162973124140E+00 -0.317774315082929E+00 -0.233968845334066E-01
 -0.955162973124140E+00 -0.211850529508475E+00 -0.165617602998656E-01
 -0.955162973124140E+00 -0.105925053478478E+00 -0.857883037339377E-02
 -0.955162973124140E+00 -0.790519978293986E-17  0.277269682103505E-16
 -0.955162973124140E+00  0.105925053478478E+00  0.857883037339382E-02
 -0.955162973124140E+00  0.211850529508475E+00  0.165617602998656E-01
 -0.955162973124140E+00  0.317774315082929E+00  0.233968845334066E-01
 -0.955162973124140E+00  0.423704436434061E+00  0.285729056023101E-01
 -0.955162973124140E+00  0.529610856542781E+00  0.315480652305474E-01
 -0.955162973124140E+00  0.635605065171759E+00  0.316491110684224E-01
 -0.955162973124140E+00  0.741262543272473E+00  0.280349512949165E-01
 -0.955162973124140E+00  0.848039647510822E+00  0.197483227955021E-01
 -0.955162973124140E+00  0.955162973124140E+00  0.656077899645410E-02
 -0.955162973124140E+00  0.100000000000000E+01  0.000000000000000E+00
 -0.848039647510822E+00 -0.100000000000000E+01  0.000000000000000E+00
 -0.848039647510822E+00 -0.955162973124140E+00 -0.203371271733453E-01
 -0.848039647510822E+00 -0.848039647510822E+00 -0.622963462633638E-01
 -0.848039647510822E+00 -0.741262543272473E+00 -0.896670947798647E-01
 -0.848039647510822E+00 -0.635605065171759E+00 -0.102212237845780E+00
 -0.848039647510822E+00 -0.529610856542781E+00 -0.102531669507241E+00
 -0.848039647510822E+00 -0.423704436434061E+00 -0.931996789968736E-01
 -0.848039647510822E+00 -0.317774315082929E+00 -0.764484521347100E-01
 -0.848039647510822E+00 -0.211850529508475E+00 -0.541466351304739E-01
 -0.848039647510822E+00 -0.105925053478478E+00 -0.280494065953678E-01
 -0.848039647510822E+00 -0.790519978293986E-17  0.918362125450132E-16
 -0.848039647510822E+00  0.105925053478478E+00  0.280494065953680E-01
 -0.848039647510822E+00  0.211850529508475E+00  0.541466351304740E-01
 -0.848039647510822E+00  0.317774315082929E+00  0.764484521347100E-01
 -0.848039647510822E+00  0.423704436434061E+00  0.931996789968736E-01
 -0.848039647510822E+00  0.529610856542781E+00  0.102531669507241E+00
 -0.848039647510822E+00  0.635605065171759E+00  0.102212237845780E+00
 -0.848039647510822E+00  0.741262543272473E+00  0.896670947798646E-01
 -0.848039647510822E+00  0.848039647510822E+00  0.622963462633638E-01
 -0.848039647510822E+00  0.955162973124140E+00  0.203371271733453E-01
 -0.848039647510822E+00  0.100000000000000E+01  0.000000000000000E+00
 -0.741262543272473E+00 -0.100000000000000E+01  0.000000000000000E+00
 -0.741262543272473E+00 -0.955162973124140E+00 -0.306468884176929E-01
 -0.741262543272473E+00 -0.848039647510822E+00 -0.951334008107052E-01
 -0.741262543272473E+00 -0.741262543272473E+00 -0.138957106896739E+00
 -0.741262543272473E+00 -0.635605065171759E+00 -0.160307119095049E+00
 -0.741262543272473E+00 -0.529610856542781E+00 -0.162202958459577E+00
 -0.741262543272473E+00 -0.423704436434061E+00 -0.148245878018529E+00
 -0.741262543272473E+00 -0.317774315082929E+00 -0.121961338747895E+00
 -0.741262543272473E+00 -0.211850529508475E+00 -0.864954112401252E-01
 -0.741262543272473E+00 -0.105925053478478E+00 -0.448260728877714E-01
 -0.741262543272473E+00 -0.790519978293986E-17  0.149564389499768E-15
 -0.741262543272473E+00  0.105925053478478E+00  0.448260728877717E-01
 -0.741262543272473E+00  0.211850529508475E+00  0.864954112401253E-01
 -0.741262543272473E+00  0.317774315082929E+00  0.121961338747895E+00
 -0.741262543272473E+00  0.423704436434061E+00  0.148245878018529E+00
 -0.741262543272473E+00  0.529610856542781E+00  0.162202958459577E+00
 -0.741262543272473E+00  0.635605065171759E+00  0.160307119095049E+00
 -0.741262543272473E+00  0.741262543272473E+00  0.138957106896739E+00
 -0.741262543272473E+00  0.848039647510822E+00  0.951334008107052E-01
 -0.741262543272473E+00  0.955162973124140E+00  0.306468884176929E-01
 -0.741262543272473E+00  0.100000000000000E+01  0.000000000000000E+00
 -0.635605065171759E+00 -0.100000000000000E+01  0.000000000000000E+00
 -0.635605065171759E+00 -0.955162973124140E+00 -0.378343406189769E-01
 -0.635605065171759E+00 -0.848039647510822E+00 -0.118535286832553E+00
 -0.635605065171759E+00 -0.741262543272473E+00 -0.175197275025449E+00
 -0.635605065171759E+00 -0.635605065171759E+00 -0.204263313779976E+00
 -0.635605065171759E+00 -0.529610856542781E+00 -0.208380651048833E+00
 -0.635605065171759E+00 -0.423704436434061E+00 -0.191511571007486E+00
 -0.635605065171759E+00 -0.317774315082929E+00 -0.158075257354577E+00
 -0.635605065171759E+00 -0.211850529508475E+00 -0.112293754643765E+00
 -0.635605065171759E+00 -0.105925053478478E+00 -0.582355277983691E-01
 -0.635605065171759E+00 -0.790519978293986E-17  0.197472508711140E-15
 -0.635605065171759E+00  0.105925053478478E+00  0.582355277983694E-01
 -0.635605065171759E+00  0.211850529508475E+00  0.112293754643765E+00
 -0.635605065171759E+00  0.317774315082929E+00  0.158075257354577E+00
 -0.635605065171759E+00  0.423704436434061E+00  0.191511571007486E+00
 -0.635605065171759E+00  0.529610856542781E+00  0.208380651048833E+00
 -0.635605065171759E+00  0.635605065171759E+00  0.204263313779976E+00
 -0.635605065171759E+00  0.741262543272473E+00  0.175197275025449E+00
 -0.635605065171759E+00  0.848039647510822E+00  0.118535286832553E+00
 -0.635605065171759E+00  0.955162973124140E+00  0.378343406189769E-01
 -0.635605065171759E+00  0.100000000000000E+01  0.000000000000000E+00
 -0.529610856542781E+00 -0.100000000000000E+01  0.000000000000000E+00
 -0.529610856542781E+00 -0.955162973124140E+00 -0.427499374597726E-01
 -0.529610856542781E+00 -0.848039647510822E+00 -0.134789555796290E+00
 -0.529610856542781E+00 -0.741262543272473E+00 -0.200982152655144E+00
 -0.529610856542781E+00 -0.635605065171759E+00 -0.236297624283618E+00
 -0.529610856542781E+00 -0.529610856542781E+00 -0.242719168578299E+00
 -0.529610856542781E+00 -0.423704436434061E+00 -0.224165913477072E+00
 -0.529610856542781E+00 -0.317774315082929E+00 -0.185599526346043E+00
 -0.529610856542781E+00 -0.211850529508475E+00 -0.132068296890220E+00
 -0.529610856542781E+00 -0.105925053478478E+00 -0.685427904989826E-01
 -0.529610856542781E+00 -0.790519978293986E-17  0.231748655003219E-15
 -0.529610856542781E+00  0.105925053478478E+00  0.685427904989831E-01
 -0.529610856542781E+00  0.211850529508475E+00  0.132068296890220E+00
 -0.529610856542781E+00  0.317774315082929E+00  0.185599526346043E+00
 -0.529610856542781E+00  0.423704436434061E+00  0.224165913477072E+00
 -0.529610856542781E+00  0.529610856542781E+00  0.242719168578299E+00
 -0.529610856542781E+00  0.635605065171759E+00  0.236297624283618E+00
 -0.529610856542781E+00  0.741262543272473E+00  0.200982152655144E+00
 -0.529610856542781E+00  0.848039647510822E+00  0.134789555796290E+00
 -0.529610856542781E+00  0.955162973124140E+00  0.427499374597727E-01
 -0.529610856542781E+00  0.100000000000000E+01  0.000000000000000E+00
 -0.423704436434061E+00 -0.100000000000000E+01  0.000000000000000E+00
 -0.423704436434061E+00 -0.955162973124140E+00 -0.460336712925079E-01
 -0.423704436434061E+00 -0.848039647510822E+00 -0.145757048856934E+00
 -0.423704436434061E+00 -0.741262543272473E+00 -0.218676464730049E+00
 -0.423704436434061E+00 -0.635605065171759E+00 -0.258679684459987E+00
 -0.423704436434061E+00 -0.529610856542781E+00 -0.267098131168998E+00
 -0.423704436434061E+00 -0.423704436434061E+00 -0.247639442046475E+00
 -0.423704436434061E+00 -0.317774315082929E+00 -0.205557638396517E+00
 -0.423704436434061E+00 -0.211850529508475E+00 -0.146484362830820E+00
 -0.423704436434061E+00 -0.105925053478478E+00 -0.760782167240452E-01
 -0.423704436434061E+00 -0.790519978293986E-17  0.258831864256097E-15
 -0.423704436434061E+00  0.105925053478478E+00  0.760782167240457E-01
 -0.423704436434061E+00  0.211850529508475E+00  0.146484362830820E+00
 -0.423704436434061E+00  0.317774315082929E+00  0.205557638396517E+00
 -0.423704436434061E+00  0.423704436434061E+00  0.247639442046475E+00
 -0.423704436434061E+00  0.529610856542781E+00  0.267098131168997E+00
 -0.423704436434061E+00  0.635605065171759E+00  0.258679684459987E+00
 -0.423704436434061E+00  0.741262543272473E+00  0.218676464730049E+00
 -0.423704436434061E+00  0.848039647510822E+00  0.145757048856934E+00
 -0.423704436434061E+00  0.955162973124140E+00  0.460336712925079E-01
 -0.423704436434061E+00  0.100000000000000E+01  0.000000000000000E+00
 -0.317774315082929E+00 -0.100000000000000E+01  0.000000000000000E+00
 -0.317774315082929E+00 -0.955162973124140E+00 -0.481879764062621E-01
 -0.317774315082929E+00 -0.848039647510822E+00 -0.152992489796056E+00
 -0.317774315082929E+00 -0.741262543272473E+00 -0.230471732203935E+00
 -0.317774315082929E+00 -0.635605065171759E+00 -0.273779336910523E+00
 -0.317774315082929E+00 -0.529610856542781E+00 -0.283731341734869E+00
 -0.317774315082929E+00 -0.423704436434061E+00 -0.263803444913598E+00
 -0.317774315082929E+00 -0.317774315082929E+00 -0.219394273800409E+00
 -0.317774315082929E+00 -0.211850529508475E+00 -0.156523046427033E+00
 -0.317774315082929E+00 -0.105925053478478E+00 -0.813382677087340E-01
 -0.317774315082929E+00 -0.790519978293986E-17  0.268022048823755E-15
 -0.317774315082929E+00  0.105925053478478E+00  0.813382677087346E-01
 -0.317774315082929E+00  0.211850529508475E+00  0.156523046427034E+00
 -0.317774315082929E+00  0.317774315082929E+00  0.219394273800410E+00
 -0.317774315082929E+00  0.423704436434061E+00  0.263803444913598E+00
 -0.317774315082929E+00  0.529610856542781E+00  0.283731341734869E+00
 -0.317774315082929E+00  0.635605065171759E+00  0.273779336910523E+00
 -0.317774315082929E+00  0.741262543272473E+00  0.230471732203935E+00
 -0.317774315082929E+00  0.848039647510822E+00  0.152992489796056E+00
 -0.317774315082929E+00  0.955162973124140E+00  0.481879764062621E-01
 -0.317774315082929E+00  0.100000000000000E+01  0.000000000000000E+00
 -0.211850529508475E+00 -0.100000000000000E+01  0.000000000000000E+00
 -0.211850529508475E+00 -0.955162973124140E+00 -0.495393562583062E-01
 -0.211850529508475E+00 -0.848039647510822E+00 -0.157542449705685E+00
 -0.211850529508475E+00 -0.741262543272473E+00 -0.237929629784727E+00
 -0.211850529508475E+00 -0.635605065171759E+00 -0.283392854608511E+00
 -0.211850529508475E+00 -0.529610856542781E+00 -0.294395537675820E+00
 -0.211850529508475E+00 -0.423704436434061E+00 -0.274229811546899E+00
 -0.211850529508475E+00 -0.317774315082929E+00 -0.228361209924739E+00
 -0.211850529508475E+00 -0.211850529508475E+00 -0.163049491143188E+00
 -0.211850529508475E+00 -0.105925053478478E+00 -0.847642039123916E-01
 -0.211850529508475E+00 -0.790519978293986E-17  0.273763153025687E-15
 -0.211850529508475E+00  0.105925053478478E+00  0.847642039123922E-01
 -0.211850529508475E+00  0.211850529508475E+00  0.163049491143188E+00
 -0.211850529508475E+00  0.317774315082929E+00  0.228361209924739E+00
 -0.211850529508475E+00  0.423704436434061E+00  0.274229811546898E+00
 -0.211850529508475E+00  0.529610856542781E+00  0.294395537675820E+00
 -0.211850529508475E+00  0.635605065171759E+00  0.283392854608510E+00
 -0.211850529508475E+00  0.741262543272473E+00  0.237929629784726E+00
 -0.211850529508475E+00  0.848039647510822E+00  0.157542449705685E+00
 -0.211850529508475E+00  0.955162973124140E+00  0.495393562583063E-01
 -0.211850529508475E+00  0.100000000000000E+01  0.000000000000000E+00
 -0.105925053478478E+00 -0.100000000000000E+01  0.000000000000000E+00
 -0.105925053478478E+00 -0.955162973124140E+00 -0.502833978232734E-01
 -0.105925053478478E+00 -0.848039647510822E+00 -0.160049417989842E+00
 -0.105925053478478E+00 -0.741262543272473E+00 -0.242048324324702E+00
 -0.105925053478478E+00 -0.635605065171759E+00 -0.288720054226515E+00
 -0.105925053478478E+00 -0.529610856542781E+00 -0.300327042666039E+00
 -0.105925053478478E+00 -0.423704436434061E+00 -0.280049010243714E+00
 -0.105925053478478E+00 -0.317774315082929E+00 -0.233379833565973E+00
 -0.105925053478478E+00 -0.211850529508475E+00 -0.166709475292732E+00
 -0.105925053478478E+00 -0.105925053478478E+00 -0.866876886266590E-01
 -0.105925053478478E+00 -0.790519978293986E-17  0.274180449306516E-15
 -0.105925053478478E+00  0.105925053478478E+00  0.866876886266596E-01
 -0.105925053478478E+00  0.211850529508475E+00  0.166709475292732E+00
 -0.105925053478478E+00  0.317774315082929E+00  0.233379833565974E+00
 -0.105925053478478E+00  0.423704436434061E+00  0.280049010243714E+00
 -0.105925053478478E+00  0.529610856542781E+00  0.300327042666039E+00
 -0.105925053478478E+00  0.635605065171759E+00  0.288720054226515E+00
 -0.105925053478478E+00  0.741262543272473E+00  0.242048324324702E+00
 -0.105925053478478E+00  0.848039647510822E+00  0.160049417989842E+00
 -0.105925053478478E+00  0.955162973124140E+00  0.502833978232735E-01
 -0.105925053478478E+00  0.100000000000000E+01  0.000000000000000E+00
 -0.790519978293986E-17 -0.100000000000000E+01  0.000000000000000E+00
 -0.790519978293986E-17 -0.955162973124140E+00 -0.505210965310198E-01
 -0.790519978293986E-17 -0.848039647510822E+00 -0.160850385904009E+00
 -0.790519978293986E-17 -0.741262543272473E+00 -0.243365178390497E+00
 -0.790519978293986E-17 -0.635605065171759E+00 -0.290425478794012E+00
 -0.790519978293986E-17 -0.529610856542781E+00 -0.302228845185748E+00
 -0.790519978293986E-17 -0.423704436434061E+00 -0.281917599592648E+00
 -0.790519978293986E-17 -0.317774315082929E+00 -0.234993391060167E+00
 -0.790519978293986E-17 -0.211850529508475E+00 -0.167887305968128E+00
 -0.790519978293986E-17 -0.105925053478478E+00 -0.873070377343787E-01
 -0.790519978293986E-17 -0.790519978293986E-17  0.268630728126076E-15
 -0.790519978293986E-17  0.105925053478478E+00  0.873070377343792E-01
 -0.790519978293986E-17  0.211850529508475E+00  0.167887305968128E+00
 -0.790519978293986E-17  0.317774315082929E+00  0.234993391060167E+00
 -0.790519978293986E-17  0.423704436434061E+00  0.281917599592648E+00
 -0.790519978293986E-17  0.529610856542781E+00  0.302228845185747E+00
 -0.790519978293986E-17  0.635605065171759E+00  0.290425478794012E+00
 -0.790519978293986E-17  0.741262543272473E+00  0.243365178390497E+00
 -0.790519978293986E-17  0.848039647510822E+00  0.160850385904009E+00
 -0.790519978293986E-17  0.955162973124140E+00  0.505210965310198E-01
 -0.790519978293986E-17  0.100000000000000E+01  0.000000000000000E+00
  0.105925053478478E+00 -0.100000000000000E+01  0.000000000000000E+00
  0.105925053478478E+00 -0.955162973124140E+00 -0.502833978232735E-01
  0.105925053478478E+00 -0.848039647510822E+00 -0.160049417989842E+00
  0.105925053478478E+00 -0.741262543272473E+00 -0.242048324324702E+00
  0.105925053478478E+00 -0.635605065171759E+00 -0.288720054226515E+00
  0.105925053478478E+00 -0.529610856542781E+00 -0.300327042666039E+00
  0.105925053478478E+00 -0.423704436434061E+00 -0.280049010243714E+00
  0.105925053478478E+00 -0.317774315082929E+00 -0.233379833565974E+00
  0.105925053478478E+00 -0.211850529508475E+00 -0.166709475292732E+00
  0.105925053478478E+00 -0.105925053478478E+00 -0.866876886266591E-01
  0.105925053478478E+00 -0.790519978293986E-17  0.254304842135112E-15
  0.105925053478478E+00  0.105925053478478E+00  0.866876886266596E-01
  0.105925053478478E+00  0.211850529508475E+00  0.166709475292733E+00
  0.105925053478478E+00  0.317774315082929E+00  0.233379833565974E+00
  0.105925053478478E+00  0.423704436434061E+00  0.280049010243714E+00
  0.105925053478478E+00  0.529610856542781E+00  0.300327042666039E+00
  0.105925053478478E+00  0.635605065171759E+00  0.288720054226515E+00
  0.105925053478478E+00  0.741262543272473E+00  0.242048324324702E+00
  0.105925053478478E+00  0.848039647510822E+00  0.160049417989842E+00
  0.105925053478478E+00  0.955162973124140E+00  0.502833978232735E-01
  0.105925053478478E+00  0.100000000000000E+01  0.000000000000000E+00
  0.211850529508475E+00 -0.100000000000000E+01  0.000000000000000E+00
  0.211850529508475E+00 -0.955162973124140E+00 -0.495393562583063E-01
  0.211850529508475E+00 -0.848039647510822E+00 -0.157542449705686E+00
  0.211850529508475E+00 -0.741262543272473E+00 -0.237929629784727E+00
  0.211850529508475E+00 -0.635605065171759E+00 -0.283392854608511E+00
  0.211850529508475E+00 -0.529610856542781E+00 -0.294395537675820E+00
  0.211850529508475E+00 -0.423704436434061E+00 -0.274229811546899E+00
  0.211850529508475E+00 -0.317774315082929E+00 -0.228361209924739E+00
  0.211850529508475E+00 -0.211850529508475E+00 -0.163049491143188E+00
  0.211850529508475E+00 -0.105925053478478E+00 -0.847642039123917E-01
  0.211850529508475E+00 -0.790519978293986E-17  0.227393061802107E-15
  0.211850529508475E+00  0.105925053478478E+00  0.847642039123922E-01
  0.211850529508475E+00  0.211850529508475E+00  0.163049491143188E+00
  0.211850529508475E+00  0.317774315082929E+00  0.228361209924739E+00
  0.211850529508475E+00  0.423704436434061E+00  0.274229811546899E+00
  0.211850529508475E+00  0.529610856542781E+00  0.294395537675820E+00
  0.211850529508475E+00  0.635605065171759E+00  0.283392854608511E+00
  0.211850529508475E+00  0.741262543272473E+00  0.237929629784726E+00
  0.211850529508475E+00  0.848039647510822E+00  0.157542449705685E+00
  0.211850529508475E+00  0.955162973124140E+00  0.495393562583063E-01
  0.211850529508475E+00  0.100000000000000E+01  0.000000000000000E+00
  0.317774315082929E+00 -0.100000000000000E+01  0.000000000000000E+00
  0.317774315082929E+00 -0.955162973124140E+00 -0.481879764062621E-01
  0.317774315082929E+00 -0.848039647510822E+00 -0.152992489796056E+00
  0.317774315082929E+00 -0.741262543272473E+00 -0.230471732203935E+00
  0.317774315082929E+00 -0.635605065171759E+00 -0.273779336910523E+00
  0.317774315082929E+00 -0.529610856542781E+00 -0.283731341734869E+00
  0.317774315082929E+00 -0.423704436434061E+00 -0.263803444913598E+00
  0.317774315082929E+00 -0.317774315082929E+00 -0.219394273800409E+00
  0.317774315082929E+00 -0.211850529508475E+00 -0.156523046427033E+00
  0.317774315082929E+00 -0.105925053478478E+00 -0.813382677087341E-01
  0.317774315082929E+00 -0.790519978293986E-17  0.196042392638985E-15
  0.317774315082929E+00  0.105925053478478E+00  0.813382677087345E-01
  0.317774315082929E+00  0.211850529508475E+00  0.156523046427034E+00
  0.317774315082929E+00  0.317774315082929E+00  0.219394273800409E+00
  0.317774315082929E+00  0.423704436434061E+00  0.263803444913598E+00
  0.317774315082929E+00  0.529610856542781E+00  0.283731341734869E+00
  0.317774315082929E+00  0.635605065171759E+00  0.273779336910523E+00
  0.317774315082929E+00  0.741262543272473E+00  0.230471732203935E+00
  0.317774315082929E+00  0.848039647510822E+00  0.152992489796056E+00
  0.317774315082929E+00  0.955162973124140E+00  0.481879764062621E-01
  0.317774315082929E+00  0.100000000000000E+01  0.000000000000000E+00
  0.423704436434061E+00 -0.100000000000000E+01  0.000000000000000E+00
  0.423704436434061E+00 -0.955162973124140E+00 -0.460336712925079E-01
  0.423704436434061E+00 -0.848039647510822E+00 -0.145757048856934E+00
  0.423704436434061E+00 -0.741262543272473E+00 -0.218676464730049E+00
  0.423704436434061E+00 -0.635605065171759E+00 -0.258679684459987E+00
  0.423704436434061E+00 -0.529610856542781E+00 -0.267098131168997E+00
  0.423704436434061E+00 -0.423704436434061E+00 -0.247639442046475E+00
  0.423704436434061E+00 -0.317774315082929E+00 -0.205557638396517E+00
  0.423704436434061E+00 -0.211850529508475E+00 -0.146484362830820E+00
  0.423704436434061E+00 -0.105925053478478E+00 -0.760782167240452E-01
  0.423704436434061E+00 -0.790519978293986E-17  0.167332399309704E-15
  0.423704436434061E+00  0.105925053478478E+00  0.760782167240455E-01
  0.423704436434061E+00  0.211850529508475E+00  0.146484362830820E+00
  0.423704436434061E+00  0.317774315082929E+00  0.205557638396517E+00
  0.423704436434061E+00  0.423704436434061E+00  0.247639442046474E+00
  0.423704436434061E+00  0.529610856542781E+00  0.267098131168997E+00
  0.423704436434061E+00  0.635605065171759E+00  0.258679684459987E+00
  0.423704436434061E+00  0.741262543272473E+00  0.218676464730049E+00
  0.423704436434061E+00  0.848039647510822E+00  0.145757048856934E+00
  0.423704436434061E+00  0.955162973124140E+00  0.460336712925079E-01
  0.423704436434061E+00  0.100000000000000E+01  0.000000000000000E+00
  0.529610856542781E+00 -0.100000000000000E+01  0.000000000000000E+00
  0.529610856542781E+00 -0.955162973124140E+00 -0.427499374597726E-01
  0.529610856542781E+00 -0.848039647510822E+00 -0.134789555796290E+00
  0.529610856542781E+00 -0.741262543272473E+00 -0.200982152655144E+00
  0.529610856542781E+00 -0.635605065171759E+00 -0.236297624283618E+00
  0.529610856542781E+00 -0.529610856542781E+00 -0.242719168578299E+00
  0.529610856542781E+00 -0.423704436434061E+00 -0.224165913477071E+00
  0.529610856542781E+00 -0.317774315082929E+00 -0.185599526346042E+00
  0.529610856542781E+00 -0.211850529508475E+00 -0.132068296890220E+00
  0.529610856542781E+00 -0.105925053478478E+00 -0.685427904989826E-01
  0.529610856542781E+00 -0.790519978293986E-17  0.138447549526329E-15
  0.529610856542781E+00  0.105925053478478E+00  0.685427904989829E-01
  0.529610856542781E+00  0.211850529508475E+00  0.132068296890220E+00
  0.529610856542781E+00  0.317774315082929E+00  0.185599526346042E+00
  0.529610856542781E+00  0.423704436434061E+00  0.224165913477071E+00
  0.529610856542781E+00  0.529610856542781E+00  0.242719168578299E+00
  0.529610856542781E+00  0.635605065171759E+00  0.236297624283617E+00
  0.529610856542781E+00  0.741262543272473E+00  0.200982152655144E+00
  0.529610856542781E+00  0.848039647510822E+00  0.134789555796290E+00
  0.529610856542781E+00  0.955162973124140E+00  0.427499374597726E-01
  0.529610856542781E+00  0.100000000000000E+01  0.000000000000000E+00
  0.635605065171759E+00 -0.100000000000000E+01  0.000000000000000E+00
  0.635605065171759E+00 -0.955162973124140E+00 -0.378343406189768E-01
  0.635605065171759E+00 -0.848039647510822E+00 -0.118535286832553E+00
  0.635605065171759E+00 -0.741262543272473E+00 -0.175197275025449E+00
  0.635605065171759E+00 -0.635605065171759E+00 -0.204263313779976E+00
  0.635605065171759E+00 -0.529610856542781E+00 -0.208380651048833E+00
  0.635605065171759E+00 -0.423704436434061E+00 -0.191511571007486E+00
  0.635605065171759E+00 -0.317774315082929E+00 -0.158075257354577E+00
  0.635605065171759E+00 -0.211850529508475E+00 -0.112293754643765E+00
  0.635605065171759E+00 -0.105925053478478E+00 -0.582355277983691E-01
  0.635605065171759E+00 -0.790519978293986E-17  0.105990658456848E-15
  0.635605065171759E+00  0.105925053478478E+00  0.582355277983693E-01
  0.635605065171759E+00  0.211850529508475E+00  0.112293754643765E+00
  0.635605065171759E+00  0.317774315082929E+00  0.158075257354577E+00
  0.635605065171759E+00  0.423704436434061E+00  0.191511571007485E+00
  0.635605065171759E+00  0.529610856542781E+00  0.208380651048832E+00
  0.635605065171759E+00  0.635605065171759E+00  0.204263313779975E+00
  0.635605065171759E+00  0.741262543272473E+00  0.175197275025449E+00
  0.635605065171759E+00  0.848039647510822E+00  0.118535286832553E+00
  0.635605065171759E+00  0.955162973124140E+00  0.378343406189768E-01
  0.635605065171759E+00  0.100000000000000E+01  0.000000000000000E+00
  0.741262543272473E+00 -0.100000000000000E+01  0.000000000000000E+00
  0.741262543272473E+00 -0.955162973124140E+00 -0.306468884176929E-01
  0.741262543272473E+00 -0.848039647510822E+00 -0.951334008107052E-01
  0.741262543272473E+00 -0.741262543272473E+00 -0.138957106896739E+00
  0.741262543272473E+00 -0.635605065171759E+00 -0.160307119095049E+00
  0.741262543272473E+00 -0.529610856542781E+00 -0.162202958459577E+00
  0.741262543272473E+00 -0.423704436434061E+00 -0.148245878018529E+00
  0.741262543272473E+00 -0.317774315082929E+00 -0.121961338747894E+00
  0.741262543272473E+00 -0.211850529508475E+00 -0.864954112401251E-01
  0.741262543272473E+00 -0.105925053478478E+00 -0.448260728877714E-01
  0.741262543272473E+00 -0.790519978293986E-17  0.714939439467408E-16
  0.741262543272473E+00  0.105925053478478E+00  0.448260728877716E-01
  0.741262543272473E+00  0.211850529508475E+00  0.864954112401251E-01
  0.741262543272473E+00  0.317774315082929E+00  0.121961338747894E+00
  0.741262543272473E+00  0.423704436434061E+00  0.148245878018529E+00
  0.741262543272473E+00  0.529610856542781E+00  0.162202958459577E+00
  0.741262543272473E+00  0.635605065171759E+00  0.160307119095049E+00
  0.741262543272473E+00  0.741262543272473E+00  0.138957106896738E+00
  0.741262543272473E+00  0.848039647510822E+00  0.951334008107051E-01
  0.741262543272473E+00  0.955162973124140E+00  0.306468884176929E-01
  0.741262543272473E+00  0.100000000000000E+01  0.000000000000000E+00
  0.848039647510822E+00 -0.100000000000000E+01  0.000000000000000E+00
  0.848039647510822E+00 -0.955162973124140E+00 -0.203371271733453E-01
  0.848039647510822E+00 -0.848039647510822E+00 -0.622963462633638E-01
  0.848039647510822E+00 -0.741262543272473E+00 -0.896670947798647E-01
  0.848039647510822E+00 -0.635605065171759E+00 -0.102212237845780E+00
  0.848039647510822E+00 -0.529610856542781E+00 -0.102531669507241E+00
  0.848039647510822E+00 -0.423704436434061E+00 -0.931996789968735E-01
  0.848039647510822E+00 -0.317774315082929E+00 -0.764484521347099E-01
  0.848039647510822E+00 -0.211850529508475E+00 -0.541466351304739E-01
  0.848039647510822E+00 -0.105925053478478E+00 -0.280494065953678E-01
  0.848039647510822E+00 -0.790519978293986E-17  0.414134074662860E-16
  0.848039647510822E+00  0.105925053478478E+00  0.280494065953679E-01
  0.848039647510822E+00  0.211850529508475E+00  0.541466351304739E-01
  0.848039647510822E+00  0.317774315082929E+00  0.764484521347099E-01
  0.848039647510822E+00  0.423704436434061E+00  0.931996789968735E-01
  0.848039647510822E+00  0.529610856542781E+00  0.102531669507241E+00
  0.848039647510822E+00  0.635605065171759E+00  0.102212237845779E+00
  0.848039647510822E+00  0.741262543272473E+00  0.896670947798645E-01
  0.848039647510822E+00  0.848039647510822E+00  0.622963462633638E-01
  0.848039647510822E+00  0.955162973124140E+00  0.203371271733453E-01
  0.848039647510822E+00  0.100000000000000E+01  0.000000000000000E+00
  0.955162973124140E+00 -0.100000000000000E+01  0.000000000000000E+00
  0.955162973124140E+00 -0.955162973124140E+00 -0.656077899645410E-02
  0.955162973124140E+00 -0.848039647510822E+00 -0.197483227955022E-01
  0.955162973124140E+00 -0.741262543272473E+00 -0.280349512949165E-01
  0.955162973124140E+00 -0.635605065171759E+00 -0.316491110684225E-01
  0.955162973124140E+00 -0.529610856542781E+00 -0.315480652305474E-01
  0.955162973124140E+00 -0.423704436434061E+00 -0.285729056023101E-01
  0.955162973124140E+00 -0.317774315082929E+00 -0.233968845334066E-01
  0.955162973124140E+00 -0.211850529508475E+00 -0.165617602998656E-01
  0.955162973124140E+00 -0.105925053478478E+00 -0.857883037339378E-02
  0.955162973124140E+00 -0.790519978293986E-17  0.122753044260413E-16
  0.955162973124140E+00  0.105925053478478E+00  0.857883037339381E-02
  0.955162973124140E+00  0.211850529508475E+00  0.165617602998656E-01
  0.955162973124140E+00  0.317774315082929E+00  0.233968845334066E-01
  0.955162973124140E+00  0.423704436434061E+00  0.285729056023101E-01
  0.955162973124140E+00  0.529610856542781E+00  0.315480652305474E-01
  0.955162973124140E+00  0.635605065171759E+00  0.316491110684224E-01
  0.955162973124140E+00  0.741262543272473E+00  0.280349512949165E-01
  0.955162973124140E+00  0.848039647510822E+00  0.197483227955021E-01
  0.955162973124140E+00  0.955162973124140E+00  0.656077899645410E-02
  0.955162973124140E+00  0.100000000000000E+01  0.000000000000000E+00
  0.100000000000000E+01 -0.100000000000000E+01  0.000000000000000E+00
  0.100000000000000E+01 -0.955162973124140E+00  0.000000000000000E+00
  0.100000000000000E+01 -0.848039647510822E+00  0.000000000000000E+00
  0.100000000000000E+01 -0.741262543272473E+00  0.000000000000000E+00
  0.100000000000000E+01 -0.635605065171759E+00  0.000000000000000E+00
  0.100000000000000E+01 -0.529610856542781E+00  0.000000000000000E+00
  0.100000000000000E+01 -0.423704436434061E+00  0.000000000000000E+00