 VARIABLES =  $x$  (b)
 ZONE I=         441 ,DATAPACKING=POINT
 -0.100000000000000E+01 -0.100000000000000E+01  0.000000000000000E+00
 -0.100000000000000E+01 -0.955162973124140E+00  0.000000000000000E+00
 -0.100000000000000E+01 -0.848039647510822E+00  0.000000000000000E+00
 -0.100000000000000E+01 -0.741262543272473E+00  0.000000000000000E+00
 -0.100000000000000E+01 -0.635605065171759E+00  0.000000000000000E+00
 -0.100000000000000E+01 -0.529610856542781E+00  0.000000000000000E+00
 -0.100000000000000E+01 -0.423704436434061E+00  0.000000000000000E+00
 -0.100000000000000E+01 -0.317774315082929E+00  0.000000000000000E+00
 -0.100000000000000E+01 -0.211850529508475E+00  0.000000000000000E+00
 -0.100000000000000E+01 -0.105925053478478E+00  0.000000000000000E+00
 -0.100000000000000E+01 -0.790519978293986E-17  0.000000000000000E+00
 -0.100000000000000E+01  0.105925053478478E+00  0.000000000000000E+00
 -0.100000000000000E+01  0.211850529508475E+00  0.000000000000000E+00
 -0.100000000000000E+01  0.317774315082929E+00  0.000000000000000E+00
 -0.100000000000000E+01  0.423704436434061E+00  0.000000000000000E+00
 -0.100000000000000E+01  0.529610856542781E+00  0.000000000000000E+00
 -0.100000000000000E+01  0.635605065171759E+00  0.000000000000000E+00
 -0.100000000000000E+01  0.741262543272473E+00  0.000000000000000E+00
 -0.100000000000000E+01  0.848039647510822E+00  0.000000000000000E+00
 -0.100000000000000E+01  0.955162973124140E+00  0.000000000000000E+00
 -0.100000000000000E+01  0.100000000000000E+01  0.000000000000000E+00
 -0.955162973124140E+00 -0.100000000000000E+01  0.000000000000000E+00
 -0.955162973124140E+00 -0.955162973124140E+00 -0.279847349206096E-03
 -0.955162973124140E+00 -0.848039647510822E+00 -0.103970858359416E-02
 -0.955162973124140E+00 -0.741262543272473E+00 -0.183434980826919E-02
 -0.955162973124140E+00 -0.635605065171759E+00 -0.250299220188709E-02
 -0.955162973124140E+00 -0.529610856542781E+00 -0.297187138294090E-02
 -0.955162973124140E+00 -0.423704436434061E+00 -0.323108778273310E-02
 -0.955162973124140E+00 -0.317774315082929E+00 -0.332503980264907E-02
 -0.955162973124140E+00 -0.211850529508475E+00 -0.332090030651522E-02
 -0.955162973124140E+00 -0.105925053478478E+00 -0.328575474051987E-02
 -0.955162973124140E+00 -0.790519978293986E-17 -0.326815083685999E-02
 -0.955162973124140E+00  0.105925053478478E+00 -0.328575474051987E-02
 -0.955162973124140E+00  0.211850529508475E+00 -0.332090030651522E-02
 -0.955162973124140E+00  0.317774315082929E+00 -0.332503980264906E-02
 -0.955162973124140E+00  0.423704436434061E+00 -0.323108778273309E-02
 -0.955162973124140E+00  0.529610856542781E+00 -0.297187138294089E-02
 -0.955162973124140E+00  0.635605065171759E+00 -0.250299220188709E-02
 -0.955162973124140E+00  0.741262543272473E+00 -0.183434980826918E-02
 -0.955162973124140E+00  0.848039647510822E+00 -0.103970858359415E-02
 -0.955162973124140E+00  0.955162973124140E+00 -0.279847349206096E-03
 -0.955162973124140E+00  0.100000000000000E+01  0.000000000000000E+00
 -0.848039647510822E+00 -0.100000000000000E+01  0.000000000000000E+00
 -0.848039647510822E+00 -0.955162973124140E+00 -0.104118390195047E-02
 -0.848039647510822E+00 -0.848039647510822E+00 -0.366066029743780E-02
 -0.848039647510822E+00 -0.741262543272473E+00 -0.627684360041429E-02
 -0.848039647510822E+00 -0.635605065171759E+00 -0.847786493230282E-02
 -0.848039647510822E+00 -0.529610856542781E+00 -0.100528313286161E-01
 -0.848039647510822E+00 -0.423704436434061E+00 -0.109633058333889E-01
 -0.848039647510822E+00 -0.317774315082929E+00 -0.113398705659423E-01
 -0.848039647510822E+00 -0.211850529508475E+00 -0.113880144047735E-01
 -0.848039647510822E+00 -0.105925053478478E+00 -0.113154843278058E-01
 -0.848039647510822E+00 -0.790519978293986E-17 -0.112730239562952E-01
 -0.848039647510822E+00  0.105925053478478E+00 -0.113154843278058E-01
 -0.848039647510822E+00  0.211850529508475E+00 -0.113880144047735E-01
 -0.848039647510822E+00  0.317774315082929E+00 -0.113398705659423E-01
 -0.848039647510822E+00  0.423704436434061E+00 -0.109633058333889E-01
 -0.848039647510822E+00  0.529610856542781E+00 -0.100528313286161E-01
 -0.848039647510822E+00  0.635605065171759E+00 -0.847786493230281E-02
 -0.848039647510822E+00  0.741262543272473E+00 -0.627684360041427E-02
 -0.848039647510822E+00  0.848039647510822E+00 -0.366066029743780E-02
 -0.848039647510822E+00  0.955162973124140E+00 -0.104118390195047E-02
 -0.848039647510822E+00  0.100000000000000E+01  0.000000000000000E+00
 -0.741262543272473E+00 -0.100000000000000E+01  0.000000000000000E+00
 -0.741262543272473E+00 -0.955162973124140E+00 -0.187178712002689E-02
 -0.741262543272473E+00 -0.848039647510822E+00 -0.638353872226700E-02
 -0.741262543272473E+00 -0.741262543272473E+00 -0.106960483473294E-01
 -0.741262543272473E+00 -0.635605065171759E+00 -0.143082825122211E-01
 -0.741262543272473E+00 -0.529610856542781E+00 -0.169572165724048E-01
 -0.741262543272473E+00 -0.423704436434061E+00 -0.185822401729352E-01
 -0.741262543272473E+00 -0.317774315082929E+00 -0.193645488649788E-01
 -0.741262543272473E+00 -0.211850529508475E+00 -0.195998482562847E-01
 -0.741262543272473E+00 -0.105925053478478E+00 -0.195919087254205E-01
 -0.741262543272473E+00 -0.790519978293986E-17 -0.195623474318246E-01
 -0.741262543272473E+00  0.105925053478478E+00 -0.195919087254205E-01
 -0.741262543272473E+00  0.211850529508475E+00 -0.195998482562847E-01
 -0.741262543272473E+00  0.317774315082929E+00 -0.193645488649788E-01
 -0.741262543272473E+00  0.423704436434061E+00 -0.185822401729352E-01
 -0.741262543272473E+00  0.529610856542781E+00 -0.169572165724047E-01
 -0.741262543272473E+00  0.635605065171759E+00 -0.143082825122211E-01
 -0.741262543272473E+00  0.741262543272473E+00 -0.106960483473293E-01
 -0.741262543272473E+00  0.848039647510822E+00 -0.638353872226699E-02
 -0.741262543272473E+00  0.955162973124140E+00 -0.187178712002689E-02
 -0.741262543272473E+00  0.100000000000000E+01  0.000000000000000E+00
 -0.635605065171759E+00 -0.100000000000000E+01  0.000000000000000E+00
 -0.635605065171759E+00 -0.955162973124140E+00 -0.265717228502401E-02
 -0.635605065171759E+00 -0.848039647510822E+00 -0.893745581080118E-02
 -0.635605065171759E+00 -0.741262543272473E+00 -0.147905166439385E-01
 -0.635605065171759E+00 -0.635605065171759E+00 -0.196872955440755E-01
 -0.635605065171759E+00 -0.529610856542781E+00 -0.233660235302492E-01
 -0.635605065171759E+00 -0.423704436434061E+00 -0.257535857051534E-01
 -0.635605065171759E+00 -0.317774315082929E+00 -0.270525041391338E-01
 -0.635605065171759E+00 -0.211850529508475E+00 -0.276022340573383E-01
 -0.635605065171759E+00 -0.105925053478478E+00 -0.277569831374431E-01
 -0.635605065171759E+00 -0.790519978293986E-17 -0.277768976818714E-01
 -0.635605065171759E+00  0.105925053478478E+00 -0.277569831374431E-01
 -0.635605065171759E+00  0.211850529508475E+00 -0.276022340573383E-01
 -0.635605065171759E+00  0.317774315082929E+00 -0.270525041391338E-01
 -0.635605065171759E+00  0.423704436434061E+00 -0.257535857051533E-01
 -0.635605065171759E+00  0.529610856542781E+00 -0.233660235302492E-01
 -0.635605065171759E+00  0.635605065171759E+00 -0.196872955440755E-01
 -0.635605065171759E+00  0.741262543272473E+00 -0.147905166439384E-01
 -0.635605065171759E+00  0.848039647510822E+00 -0.893745581080117E-02
 -0.635605065171759E+00  0.955162973124140E+00 -0.265717228502401E-02
 -0.635605065171759E+00  0.100000000000000E+01  0.000000000000000E+00
 -0.529610856542781E+00 -0.100000000000000E+01  0.000000000000000E+00
 -0.529610856542781E+00 -0.955162973124140E+00 -0.334073030401101E-02
 -0.529610856542781E+00 -0.848039647510822E+00 -0.111692347231600E-01
 -0.529610856542781E+00 -0.741262543272473E+00 -0.183813541044013E-01
 -0.529610856542781E+00 -0.635605065171759E+00 -0.244349339972522E-01
 -0.529610856542781E+00 -0.529610856542781E+00 -0.290874966728766E-01
 -0.529610856542781E+00 -0.423704436434061E+00 -0.322560308899130E-01
 -0.529610856542781E+00 -0.317774315082929E+00 -0.341428158786751E-01
 -0.529610856542781E+00 -0.211850529508475E+00 -0.350957617420876E-01
 -0.529610856542781E+00 -0.105925053478478E+00 -0.354837406294481E-01
 -0.529610856542781E+00 -0.790519978293986E-17 -0.355797318022325E-01
 -0.529610856542781E+00  0.105925053478478E+00 -0.354837406294482E-01
 -0.529610856542781E+00  0.211850529508475E+00 -0.350957617420876E-01
 -0.529610856542781E+00  0.317774315082929E+00 -0.341428158786750E-01
 -0.529610856542781E+00  0.423704436434061E+00 -0.322560308899129E-01
 -0.529610856542781E+00  0.529610856542781E+00 -0.290874966728766E-01
 -0.529610856542781E+00  0.635605065171759E+00 -0.244349339972521E-01
 -0.529610856542781E+00  0.741262543272473E+00 -0.183813541044013E-01
 -0.529610856542781E+00  0.848039647510822E+00 -0.111692347231600E-01
 -0.529610856542781E+00  0.955162973124140E+00 -0.334073030401100E-02
 -0.529610856542781E+00  0.100000000000000E+01  0.000000000000000E+00
 -0.423704436434061E+00 -0.100000000000000E+01  0.000000000000000E+00
 -0.423704436434061E+00 -0.955162973124140E+00 -0.389154848248837E-02
 -0.423704436434061E+00 -0.848039647510822E+00 -0.129798243460391E-01
 -0.423704436434061E+00 -0.741262543272473E+00 -0.213211510346280E-01
 -0.423704436434061E+00 -0.635605065171759E+00 -0.283644214829257E-01
 -0.423704436434061E+00 -0.529610856542781E+00 -0.338871929658408E-01
 -0.423704436434061E+00 -0.423704436434061E+00 -0.377948503084707E-01
 -0.423704436434061E+00 -0.317774315082929E+00 -0.402749991143457E-01
 -0.423704436434061E+00 -0.211850529508475E+00 -0.416608254332110E-01
 -0.423704436434061E+00 -0.105925053478478E+00 -0.423117040476432E-01
 -0.423704436434061E+00 -0.790519978293986E-17 -0.424957964013062E-01
 -0.423704436434061E+00  0.105925053478478E+00 -0.423117040476432E-01
 -0.423704436434061E+00  0.211850529508475E+00 -0.416608254332110E-01
 -0.423704436434061E+00  0.317774315082929E+00 -0.402749991143457E-01
 -0.423704436434061E+00  0.423704436434061E+00 -0.377948503084706E-01
 -0.423704436434061E+00  0.529610856542781E+00 -0.338871929658407E-01
 -0.423704436434061E+00  0.635605065171759E+00 -0.283644214829256E-01
 -0.423704436434061E+00  0.741262543272473E+00 -0.213211510346280E-01
 -0.423704436434061E+00  0.848039647510822E+00 -0.129798243460390E-01
 -0.423704436434061E+00  0.955162973124140E+00 -0.389154848248836E-02
 -0.423704436434061E+00  0.100000000000000E+01  0.000000000000000E+00
 -0.317774315082929E+00 -0.100000000000000E+01  0.000000000000000E+00
 -0.317774315082929E+00 -0.955162973124140E+00 -0.430687099721910E-02
 -0.317774315082929E+00 -0.848039647510822E+00 -0.143539125287434E-01
 -0.317774315082929E+00 -0.741262543272473E+00 -0.235741241272540E-01
 -0.317774315082929E+00 -0.635605065171759E+00 -0.314103924996342E-01
 -0.317774315082929E+00 -0.529610856542781E+00 -0.376557865155806E-01
 -0.317774315082929E+00 -0.423704436434061E+00 -0.422026388967146E-01
 -0.317774315082929E+00 -0.317774315082929E+00 -0.452171834511091E-01
 -0.317774315082929E+00 -0.211850529508475E+00 -0.470068727513287E-01
 -0.317774315082929E+00 -0.105925053478478E+00 -0.479094261538874E-01
 -0.317774315082929E+00 -0.790519978293986E-17 -0.481790051360208E-01
 -0.317774315082929E+00  0.105925053478478E+00 -0.479094261538874E-01
 -0.317774315082929E+00  0.211850529508475E+00 -0.470068727513287E-01
 -0.317774315082929E+00  0.317774315082929E+00 -0.452171834511091E-01
 -0.317774315082929E+00  0.423704436434061E+00 -0.422026388967145E-01
 -0.317774315082929E+00  0.529610856542781E+00 -0.376557865155805E-01
 -0.317774315082929E+00  0.635605065171759E+00 -0.314103924996342E-01
 -0.317774315082929E+00  0.741262543272473E+00 -0.235741241272539E-01
 -0.317774315082929E+00  0.848039647510822E+00 -0.143539125287433E-01
 -0.317774315082929E+00  0.955162973124140E+00 -0.430687099721910E-02
 -0.317774315082929E+00  0.100000000000000E+01  0.000000000000000E+00
 -0.211850529508475E+00 -0.100000000000000E+01  0.000000000000000E+00
 -0.211850529508475E+00 -0.955162973124140E+00 -0.459372282275746E-02
 -0.211850529508475E+00 -0.848039647510822E+00 -0.153079104468791E-01
 -0.211850529508475E+00 -0.741262543272473E+00 -0.251513345622686E-01
 -0.211850529508475E+00 -0.635605065171759E+00 -0.335635236045542E-01
 -0.211850529508475E+00 -0.529610856542781E+00 -0.403479691090664E-01
 -0.211850529508475E+00 -0.423704436434061E+00 -0.453850100382934E-01
 -0.211850529508475E+00 -0.317774315082929E+00 -0.488200307318819E-01
 -0.211850529508475E+00 -0.211850529508475E+00 -0.509342638635029E-01
 -0.211850529508475E+00 -0.105925053478478E+00 -0.520420722533115E-01
 -0.211850529508475E+00 -0.790519978293986E-17 -0.523818988669908E-01
 -0.211850529508475E+00  0.105925053478478E+00 -0.520420722533115E-01
 -0.211850529508475E+00  0.211850529508475E+00 -0.509342638635029E-01
 -0.211850529508475E+00  0.317774315082929E+00 -0.488200307318818E-01
 -0.211850529508475E+00  0.423704436434061E+00 -0.453850100382933E-01
 -0.211850529508475E+00  0.529610856542781E+00 -0.403479691090663E-01
 -0.211850529508475E+00  0.635605065171759E+00 -0.335635236045541E-01
 -0.211850529508475E+00  0.741262543272473E+00 -0.251513345622685E-01
 -0.211850529508475E+00  0.848039647510822E+00 -0.153079104468791E-01
 -0.211850529508475E+00  0.955162973124140E+00 -0.459372282275746E-02
 -0.211850529508475E+00  0.100000000000000E+01  0.000000000000000E+00
 -0.105925053478478E+00 -0.100000000000000E+01  0.000000000000000E+00
 -0.105925053478478E+00 -0.955162973124140E+00 -0.476131096507393E-02
 -0.105925053478478E+00 -0.848039647510822E+00 -0.158672593721404E-01
 -0.105925053478478E+00 -0.741262543272473E+00 -0.260815158945104E-01
 -0.105925053478478E+00 -0.635605065171759E+00 -0.348421219105488E-01
 -0.105925053478478E+00 -0.529610856542781E+00 -0.419584754890658E-01
 -0.105925053478478E+00 -0.423704436434061E+00 -0.473025703795305E-01
 -0.105925053478478E+00 -0.317774315082929E+00 -0.510050260755375E-01
 -0.105925053478478E+00 -0.211850529508475E+00 -0.533282013917862E-01
 -0.105925053478478E+00 -0.105925053478478E+00 -0.545692588862552E-01
 -0.105925053478478E+00 -0.790519978293986E-17 -0.549548817109715E-01
 -0.105925053478478E+00  0.105925053478478E+00 -0.545692588862553E-01
 -0.105925053478478E+00  0.211850529508475E+00 -0.533282013917862E-01
 -0.105925053478478E+00  0.317774315082929E+00 -0.510050260755374E-01
 -0.105925053478478E+00  0.423704436434061E+00 -0.473025703795304E-01
 -0.105925053478478E+00  0.529610856542781E+00 -0.419584754890657E-01
 -0.105925053478478E+00  0.635605065171759E+00 -0.348421219105487E-01
 -0.105925053478478E+00  0.741262543272473E+00 -0.260815158945104E-01
 -0.105925053478478E+00  0.848039647510822E+00 -0.158672593721404E-01
 -0.105925053478478E+00  0.955162973124140E+00 -0.476131096507393E-02
 -0.105925053478478E+00  0.100000000000000E+01  0.000000000000000E+00
 -0.790519978293986E-17 -0.100000000000000E+01  0.000000000000000E+00
 -0.790519978293986E-17 -0.955162973124140E+00 -0.481636926443879E-02
 -0.790519978293986E-17 -0.848039647510822E+00 -0.160513561226432E-01
 -0.790519978293986E-17 -0.741262543272473E+00 -0.263885846542756E-01
 -0.790519978293986E-17 -0.635605065171759E+00 -0.352657039451714E-01
 -0.790519978293986E-17 -0.529610856542781E+00 -0.424940191832764E-01
 -0.790519978293986E-17 -0.423704436434061E+00 -0.479425473598194E-01
 -0.790519978293986E-17 -0.317774315082929E+00 -0.517366125083467E-01
 -0.790519978293986E-17 -0.211850529508475E+00 -0.541317620739588E-01
 -0.790519978293986E-17 -0.105925053478478E+00 -0.554188945557197E-01
 -0.790519978293986E-17 -0.790519978293986E-17 -0.558203830923067E-01
 -0.790519978293986E-17  0.105925053478478E+00 -0.554188945557197E-01
 -0.790519978293986E-17  0.211850529508475E+00 -0.541317620739588E-01
 -0.790519978293986E-17  0.317774315082929E+00 -0.517366125083467E-01
 -0.790519978293986E-17  0.423704436434061E+00 -0.479425473598193E-01
 -0.790519978293986E-17  0.529610856542781E+00 -0.424940191832763E-01
 -0.790519978293986E-17  0.635605065171759E+00 -0.352657039451713E-01
 -0.790519978293986E-17  0.741262543272473E+00 -0.263885846542755E-01
 -0.790519978293986E-17  0.848039647510822E+00 -0.160513561226432E-01
 -0.790519978293986E-17  0.955162973124140E+00 -0.481636926443878E-02
 -0.790519978293986E-17  0.100000000000000E+01  0.000000000000000E+00
  0.105925053478478E+00 -0.100000000000000E+01  0.000000000000000E+00
  0.105925053478478E+00 -0.955162973124140E+00 -0.476131096507394E-02
  0.105925053478478E+00 -0.848039647510822E+00 -0.158672593721404E-01
  0.105925053478478E+00 -0.741262543272473E+00 -0.260815158945105E-01
  0.105925053478478E+00 -0.635605065171759E+00 -0.348421219105488E-01
  0.105925053478478E+00 -0.529610856542781E+00 -0.419584754890658E-01
  0.105925053478478E+00 -0.423704436434061E+00 -0.473025703795305E-01
  0.105925053478478E+00 -0.317774315082929E+00 -0.510050260755375E-01
  0.105925053478478E+00 -0.211850529508475E+00 -0.533282013917863E-01
  0.105925053478478E+00 -0.105925053478478E+00 -0.545692588862553E-01
  0.105925053478478E+00 -0.790519978293986E-17 -0.549548817109715E-01
  0.105925053478478E+00  0.105925053478478E+00 -0.545692588862553E-01
  0.105925053478478E+00  0.211850529508475E+00 -0.533282013917863E-01
  0.105925053478478E+00  0.317774315082929E+00 -0.510050260755375E-01
  0.105925053478478E+00  0.423704436434061E+00 -0.473025703795304E-01
  0.105925053478478E+00  0.529610856542781E+00 -0.419584754890657E-01
  0.105925053478478E+00  0.635605065171759E+00 -0.348421219105487E-01
  0.105925053478478E+00  0.741262543272473E+00 -0.260815158945104E-01
  0.105925053478478E+00  0.848039647510822E+00 -0.158672593721404E-01
  0.105925053478478E+00  0.955162973124140E+00 -0.476131096507393E-02
  0.105925053478478E+00  0.100000000000000E+01  0.000000000000000E+00
  0.211850529508475E+00 -0.100000000000000E+01  0.000000000000000E+00
  0.211850529508475E+00 -0.955162973124140E+00 -0.459372282275746E-02
  0.211850529508475E+00 -0.848039647510822E+00 -0.153079104468791E-01
  0.211850529508475E+00 -0.741262543272473E+00 -0.251513345622686E-01
  0.211850529508475E+00 -0.635605065171759E+00 -0.335635236045542E-01
  0.211850529508475E+00 -0.529610856542781E+00 -0.403479691090664E-01
  0.211850529508475E+00 -0.423704436434061E+00 -0.453850100382934E-01
  0.211850529508475E+00 -0.317774315082929E+00 -0.488200307318819E-01
  0.211850529508475E+00 -0.211850529508475E+00 -0.509342638635029E-01
  0.211850529508475E+00 -0.105925053478478E+00 -0.520420722533115E-01
  0.211850529508475E+00 -0.790519978293986E-17 -0.523818988669908E-01
  0.211850529508475E+00  0.105925053478478E+00 -0.520420722533115E-01
  0.211850529508475E+00  0.211850529508475E+00 -0.509342638635029E-01
  0.211850529508475E+00  0.317774315082929E+00 -0.488200307318819E-01
  0.211850529508475E+00  0.423704436434061E+00 -0.453850100382933E-01
  0.211850529508475E+00  0.529610856542781E+00 -0.403479691090663E-01
  0.211850529508475E+00  0.635605065171759E+00 -0.335635236045541E-01
  0.211850529508475E+00  0.741262543272473E+00 -0.251513345622685E-01
  0.211850529508475E+00  0.848039647510822E+00 -0.153079104468791E-01
  0.211850529508475E+00  0.955162973124140E+00 -0.459372282275746E-02
  0.211850529508475E+00  0.100000000000000E+01  0.000000000000000E+00
  0.317774315082929E+00 -0.100000000000000E+01  0.000000000000000E+00
  0.317774315082929E+00 -0.955162973124140E+00 -0.430687099721910E-02
  0.317774315082929E+00 -0.848039647510822E+00 -0.143539125287433E-01
  0.317774315082929E+00 -0.741262543272473E+00 -0.235741241272540E-01
  0.317774315082929E+00 -0.635605065171759E+00 -0.314103924996342E-01
  0.317774315082929E+00 -0.529610856542781E+00 -0.376557865155805E-01
  0.317774315082929E+00 -0.423704436434061E+00 -0.422026388967146E-01
  0.317774315082929E+00 -0.317774315082929E+00 -0.452171834511091E-01
  0.317774315082929E+00 -0.211850529508475E+00 -0.470068727513287E-01
  0.317774315082929E+00 -0.105925053478478E+00 -0.479094261538874E-01
  0.317774315082929E+00 -0.790519978293986E-17 -0.481790051360207E-01
  0.317774315082929E+00  0.105925053478478E+00 -0.479094261538874E-01
  0.317774315082929E+00  0.211850529508475E+00 -0.470068727513287E-01
  0.317774315082929E+00  0.317774315082929E+00 -0.452171834511091E-01
  0.317774315082929E+00  0.423704436434061E+00 -0.422026388967145E-01
  0.317774315082929E+00  0.529610856542781E+00 -0.376557865155805E-01
  0.317774315082929E+00  0.635605065171759E+00 -0.314103924996342E-01
  0.317774315082929E+00  0.741262543272473E+00 -0.235741241272539E-01
  0.317774315082929E+00  0.848039647510822E+00 -0.143539125287433E-01
  0.317774315082929E+00  0.955162973124140E+00 -0.430687099721910E-02
  0.317774315082929E+00  0.100000000000000E+01  0.000000000000000E+00
  0.423704436434061E+00 -0.100000000000000E+01  0.000000000000000E+00
  0.423704436434061E+00 -0.955162973124140E+00 -0.389154848248836E-02
  0.423704436434061E+00 -0.848039647510822E+00 -0.129798243460390E-01
  0.423704436434061E+00 -0.741262543272473E+00 -0.213211510346280E-01
  0.423704436434061E+00 -0.635605065171759E+00 -0.283644214829256E-01
  0.423704436434061E+00 -0.529610856542781E+00 -0.338871929658407E-01
  0.423704436434061E+00 -0.423704436434061E+00 -0.377948503084706E-01
  0.423704436434061E+00 -0.317774315082929E+00 -0.402749991143457E-01
  0.423704436434061E+00 -0.211850529508475E+00 -0.416608254332110E-01
  0.423704436434061E+00 -0.105925053478478E+00 -0.423117040476431E-01
  0.423704436434061E+00 -0.790519978293986E-17 -0.424957964013061E-01
  0.423704436434061E+00  0.105925053478478E+00 -0.423117040476431E-01
  0.423704436434061E+00  0.211850529508475E+00 -0.416608254332110E-01
  0.423704436434061E+00  0.317774315082929E+00 -0.402749991143456E-01
  0.423704436434061E+00  0.423704436434061E+00 -0.377948503084706E-01
  0.423704436434061E+00  0.529610856542781E+00 -0.338871929658406E-01
  0.423704436434061E+00  0.635605065171759E+00 -0.283644214829256E-01
  0.423704436434061E+00  0.741262543272473E+00 -0.213211510346280E-01
  0.423704436434061E+00  0.848039647510822E+00 -0.129798243460390E-01
  0.423704436434061E+00  0.955162973124140E+00 -0.389154848248836E-02
  0.423704436434061E+00  0.100000000000000E+01  0.000000000000000E+00
  0.529610856542781E+00 -0.100000000000000E+01  0.000000000000000E+00
  0.529610856542781E+00 -0.955162973124140E+00 -0.334073030401100E-02
  0.529610856542781E+00 -0.848039647510822E+00 -0.111692347231600E-01
  0.529610856542781E+00 -0.741262543272473E+00 -0.183813541044013E-01
  0.529610856542781E+00 -0.635605065171759E+00 -0.244349339972521E-01
  0.529610856542781E+00 -0.529610856542781E+00 -0.290874966728766E-01
  0.529610856542781E+00 -0.423704436434061E+00 -0.322560308899129E-01
  0.529610856542781E+00 -0.317774315082929E+00 -0.341428158786750E-01
  0.529610856542781E+00 -0.211850529508475E+00 -0.350957617420876E-01
  0.529610856542781E+00 -0.105925053478478E+00 -0.354837406294481E-01
  0.529610856542781E+00 -0.790519978293986E-17 -0.355797318022324E-01
  0.529610856542781E+00  0.105925053478478E+00 -0.354837406294481E-01
  0.529610856542781E+00  0.211850529508475E+00 -0.350957617420876E-01
  0.529610856542781E+00  0.317774315082929E+00 -0.341428158786750E-01
  0.529610856542781E+00  0.423704436434061E+00 -0.322560308899128E-01
  0.529610856542781E+00  0.529610856542781E+00 -0.290874966728765E-01
  0.529610856542781E+00  0.635605065171759E+00 -0.244349339972520E-01
  0.529610856542781E+00  0.741262543272473E+00 -0.183813541044012E-01
  0.529610856542781E+00  0.848039647510822E+00 -0.111692347231600E-01
  0.529610856542781E+00  0.955162973124140E+00 -0.334073030401100E-02
  0.529610856542781E+00  0.100000000000000E+01  0.000000000000000E+00
  0.635605065171759E+00 -0.100000000000000E+01  0.000000000000000E+00
  0.635605065171759E+00 -0.955162973124140E+00 -0.265717228502401E-02
  0.635605065171759E+00 -0.848039647510822E+00 -0.893745581080116E-02
  0.635605065171759E+00 -0.741262543272473E+00 -0.147905166439384E-01
  0.635605065171759E+00 -0.635605065171759E+00 -0.196872955440755E-01
  0.635605065171759E+00 -0.529610856542781E+00 -0.233660235302492E-01
  0.635605065171759E+00 -0.423704436434061E+00 -0.257535857051533E-01
  0.635605065171759E+00 -0.317774315082929E+00 -0.270525041391337E-01
  0.635605065171759E+00 -0.211850529508475E+00 -0.276022340573383E-01
  0.635605065171759E+00 -0.105925053478478E+00 -0.277569831374430E-01
  0.635605065171759E+00 -0.790519978293986E-17 -0.277768976818714E-01
  0.635605065171759E+00  0.105925053478478E+00 -0.277569831374431E-01
  0.635605065171759E+00  0.211850529508475E+00 -0.276022340573383E-01
  0.635605065171759E+00  0.317774315082929E+00 -0.270525041391337E-01
  0.635605065171759E+00  0.423704436434061E+00 -0.257535857051532E-01
  0.635605065171759E+00  0.529610856542781E+00 -0.233660235302491E-01
  0.635605065171759E+00  0.635605065171759E+00 -0.196872955440754E-01
  0.635605065171759E+00  0.741262543272473E+00 -0.147905166439384E-01
  0.635605065171759E+00  0.848039647510822E+00 -0.893745581080115E-02
  0.635605065171759E+00  0.955162973124140E+00 -0.265717228502401E-02
  0.635605065171759E+00  0.100000000000000E+01  0.000000000000000E+00
  0.741262543272473E+00 -0.100000000000000E+01  0.000000000000000E+00
  0.741262543272473E+00 -0.955162973124140E+00 -0.187178712002689E-02
  0.741262543272473E+00 -0.848039647510822E+00 -0.638353872226699E-02
  0.741262543272473E+00 -0.741262543272473E+00 -0.106960483473293E-01
  0.741262543272473E+00 -0.635605065171759E+00 -0.143082825122211E-01
  0.741262543272473E+00 -0.529610856542781E+00 -0.169572165724047E-01
  0.741262543272473E+00 -0.423704436434061E+00 -0.185822401729352E-01
  0.741262543272473E+00 -0.317774315082929E+00 -0.193645488649788E-01
  0.741262543272473E+00 -0.211850529508475E+00 -0.195998482562847E-01
  0.741262543272473E+00 -0.105925053478478E+00 -0.195919087254205E-01
  0.741262543272473E+00 -0.790519978293986E-17 -0.195623474318245E-01
  0.741262543272473E+00  0.105925053478478E+00 -0.195919087254205E-01
  0.741262543272473E+00  0.211850529508475E+00 -0.195998482562847E-01
  0.741262543272473E+00  0.317774315082929E+00 -0.193645488649788E-01
  0.741262543272473E+00  0.423704436434061E+00 -0.185822401729351E-01
  0.741262543272473E+00  0.529610856542781E+00 -0.169572165724047E-01
  0.741262543272473E+00  0.635605065171759E+00 -0.143082825122211E-01
  0.741262543272473E+00  0.741262543272473E+00 -0.106960483473293E-01
  0.741262543272473E+00  0.848039647510822E+00 -0.638353872226698E-02
  0.741262543272473E+00  0.955162973124140E+00 -0.187178712002689E-02
  0.741262543272473E+00  0.100000000000000E+01  0.000000000000000E+00
  0.848039647510822E+00 -0.100000000000000E+01  0.000000000000000E+00
  0.848039647510822E+00 -0.955162973124140E+00 -0.104118390195047E-02
  0.848039647510822E+00 -0.848039647510822E+00 -0.366066029743780E-02
  0.848039647510822E+00 -0.741262543272473E+00 -0.627684360041428E-02
  0.848039647510822E+00 -0.635605065171759E+00 -0.847786493230281E-02
  0.848039647510822E+00 -0.529610856542781E+00 -0.100528313286161E-01
  0.848039647510822E+00 -0.423704436434061E+00 -0.109633058333889E-01
  0.848039647510822E+00 -0.317774315082929E+00 -0.113398705659422E-01
  0.848039647510822E+00 -0.211850529508475E+00 -0.113880144047734E-01
  0.848039647510822E+00 -0.105925053478478E+00 -0.113154843278057E-01
  0.848039647510822E+00 -0.790519978293986E-17 -0.112730239562952E-01
  0.848039647510822E+00  0.105925053478478E+00 -0.113154843278057E-01
  0.848039647510822E+00  0.211850529508475E+00 -0.113880144047734E-01
  0.848039647510822E+00  0.317774315082929E+00 -0.113398705659422E-01
  0.848039647510822E+00  0.423704436434061E+00 -0.109633058333889E-01
  0.848039647510822E+00  0.529610856542781E+00 -0.100528313286160E-01
  0.848039647510822E+00  0.635605065171759E+00 -0.847786493230279E-02
  0.848039647510822E+00  0.741262543272473E+00 -0.627684360041426E-02
  0.848039647510822E+00  0.848039647510822E+00 -0.366066029743779E-02
  0.848039647510822E+00  0.955162973124140E+00 -0.104118390195047E-02
  0.848039647510822E+00  0.100000000000000E+01  0.000000000000000E+00
  0.955162973124140E+00 -0.100000000000000E+01  0.000000000000000E+00
  0.955162973124140E+00 -0.955162973124140E+00 -0.279847349206096E-03
  0.955162973124140E+00 -0.848039647510822E+00 -0.103970858359416E-02
  0.955162973124140E+00 -0.741262543272473E+00 -0.183434980826918E-02
  0.955162973124140E+00 -0.635605065171759E+00 -0.250299220188709E-02
  0.955162973124140E+00 -0.529610856542781E+00 -0.297187138294090E-02
  0.955162973124140E+00 -0.423704436434061E+00 -0.323108778273309E-02
  0.955162973124140E+00 -0.317774315082929E+00 -0.332503980264906E-02
  0.955162973124140E+00 -0.211850529508475E+00 -0.332090030651522E-02
  0.955162973124140E+00 -0.105925053478478E+00 -0.328575474051987E-02
  0.955162973124140E+00 -0.790519978293986E-17 -0.326815083685999E-02
  0.955162973124140E+00  0.105925053478478E+00 -0.328575474051987E-02
  0.955162973124140E+00  0.211850529508475E+00 -0.332090030651522E-02
  0.955162973124140E+00  0.317774315082929E+00 -0.332503980264906E-02
  0.955162973124140E+00  0.423704436434061E+00 -0.323108778273309E-02
  0.955162973124140E+00  0.529610856542781E+00 -0.297187138294089E-02
  0.955162973124140E+00  0.635605065171759E+00 -0.250299220188708E-02
  0.955162973124140E+00  0.741262543272473E+00 -0.183434980826918E-02
  0.955162973124140E+00  0.848039647510822E+00 -0.103970858359415E-02
  0.955162973124140E+00  0.955162973124140E+00 -0.279847349206096E-03
  0.955162973124140E+00  0.100000000000000E+01  0.000000000000000E+00
  0.100000000000000E+01 -0.100000000000000E+01  0.000000000000000E+00
  0.100000000000000E+01 -0.955162973124140E+00  0.000000000000000E+00
  0.100000000000000E+01 -0.848039647510822E+00  0.000000000000000E+00
  0.100000000000000E+01 -0.741262543272473E+00  0.000000000000000E+00
  0.100000000000000E+01 -0.635605065171759E+00  0.000000000000000E+00
  0.100000000000000E+01 -0.529610856542781E+00  0.000000000000000E+00
  0.100000000000000E+01 -0.423704436434061E+00  0.000000000000000E+00