 VARIABLES = "X", "Y", "U", "F" 
 ZONE I=          11 , J=          11 ,DATAPACKING=POINT
  -1.00000000000000       -1.00000000000000       0.000000000000000E+000
  0.000000000000000E+000
  -1.00000000000000      -0.929908211328273       0.000000000000000E+000
  0.000000000000000E+000
  -1.00000000000000      -0.738999765427872       0.000000000000000E+000
  0.000000000000000E+000
  -1.00000000000000      -0.481592278663059       0.000000000000000E+000
  0.000000000000000E+000
  -1.00000000000000      -0.238006831529782       0.000000000000000E+000
  0.000000000000000E+000
  -1.00000000000000      -1.085372427117463E-015  0.000000000000000E+000
  0.000000000000000E+000
  -1.00000000000000       0.238006831529780       0.000000000000000E+000
  0.000000000000000E+000
  -1.00000000000000       0.481592278663057       0.000000000000000E+000
  0.000000000000000E+000
  -1.00000000000000       0.738999765427869       0.000000000000000E+000
  0.000000000000000E+000
  -1.00000000000000       0.929908211328272       0.000000000000000E+000
  0.000000000000000E+000
  -1.00000000000000        1.00000000000000       0.000000000000000E+000
  0.000000000000000E+000
 -0.929908211328273       -1.00000000000000       0.000000000000000E+000
  0.000000000000000E+000
 -0.929908211328273      -0.929908211328273       4.777121472957798E-002
 -1.444064168225339E-002
 -0.929908211328273      -0.738999765427872       0.159966957498840     
  7.278124644264935E-003
 -0.929908211328273      -0.481592278663059       0.218548018579305     
  3.800876663217921E-002
 -0.929908211328273      -0.238006831529782       0.148865017682678     
  4.608908321442910E-003
 -0.929908211328273      -1.085372427117463E-015  4.122582331592522E-016
 -2.478307851497431E-002
 -0.929908211328273       0.238006831529780      -0.148865017682677     
  4.608908321442658E-003
 -0.929908211328273       0.481592278663057      -0.218548018579305     
  3.800876663217932E-002
 -0.929908211328273       0.738999765427869      -0.159966957498841     
  7.278124644265404E-003
 -0.929908211328273       0.929908211328272      -4.777121472957847E-002
 -1.444064168225350E-002
 -0.929908211328273        1.00000000000000       0.000000000000000E+000
  0.000000000000000E+000
 -0.738999765427872       -1.00000000000000       0.000000000000000E+000
  0.000000000000000E+000
 -0.738999765427872      -0.929908211328273       0.159966957498840     
  7.278124644264947E-003
 -0.738999765427872      -0.738999765427872       0.535581565752484     
  8.416118757930463E-002
 -0.738999765427872      -0.481592278663059       0.731622235092378     
  0.159296326087728     
 -0.738999765427872      -0.238006831529782       0.498339382684612     
  8.476866311656470E-002
 -0.738999765427872      -1.085372427117463E-015  1.386793525887590E-015
  1.836714037247648E-002
 -0.738999765427872       0.238006831529780      -0.498339382684611     
  8.476866311656424E-002
 -0.738999765427872       0.481592278663057      -0.731622235092380     
  0.159296326087728     
 -0.738999765427872       0.738999765427869      -0.535581565752489     
  8.416118757930605E-002
 -0.738999765427872       0.929908211328272      -0.159966957498841     
  7.278124644265058E-003
 -0.738999765427872        1.00000000000000       0.000000000000000E+000
  0.000000000000000E+000
 -0.481592278663059       -1.00000000000000       0.000000000000000E+000
  0.000000000000000E+000
 -0.481592278663059      -0.929908211328273       0.218548018579305     
  3.800876663217921E-002
 -0.481592278663059      -0.738999765427872       0.731622235092378     
  0.159296326087728     
 -0.481592278663059      -0.481592278663059       0.999283623147067     
  0.254025019042642     
 -0.481592278663059      -0.238006831529782       0.680627162170573     
  0.164852867341039     
 -0.481592278663059      -1.085372427117463E-015  1.921130668174097E-015
  8.538568303926750E-002
 -0.481592278663059       0.238006831529780      -0.680627162170571     
  0.164852867341039     
 -0.481592278663059       0.481592278663057      -0.999283623147069     
  0.254025019042643     
 -0.481592278663059       0.738999765427869      -0.731622235092385     
  0.159296326087730     
 -0.481592278663059       0.929908211328272      -0.218548018579307     
  3.800876663217965E-002
 -0.481592278663059        1.00000000000000       0.000000000000000E+000
  0.000000000000000E+000
 -0.238006831529782       -1.00000000000000       0.000000000000000E+000
  0.000000000000000E+000
 -0.238006831529782      -0.929908211328273       0.148865017682678     
  4.608908321442900E-003
 -0.238006831529782      -0.738999765427872       0.498339382684612     
  8.476866311656470E-002
 -0.238006831529782      -0.481592278663059       0.680627162170573     
  0.164852867341039     
 -0.238006831529782      -0.238006831529782       0.463575026486930     
  6.876179191583227E-002
 -0.238006831529782      -1.085372427117463E-015  1.392807097771195E-015
 -1.395998720069446E-002
 -0.238006831529782       0.238006831529780      -0.463575026486928     
  6.876179191583179E-002
 -0.238006831529782       0.481592278663057      -0.680627162170574     
  0.164852867341040     
 -0.238006831529782       0.738999765427869      -0.498339382684617     
  8.476866311656624E-002
 -0.238006831529782       0.929908211328272      -0.148865017682679     
  4.608908321442996E-003
 -0.238006831529782        1.00000000000000       0.000000000000000E+000
  0.000000000000000E+000
 -1.085372427117463E-015  -1.00000000000000       0.000000000000000E+000
  0.000000000000000E+000
 -1.085372427117463E-015 -0.929908211328273       3.471209157959064E-016
 -2.478307851497430E-002
 -1.085372427117463E-015 -0.738999765427872       1.148338533138239E-015
  1.836714037247650E-002
 -1.085372427117463E-015 -0.481592278663059       1.573236013595701E-015
  8.538568303926752E-002
 -1.085372427117463E-015 -0.238006831529782       1.198734416043254E-015
 -1.395998720069443E-002
 -1.085372427117463E-015 -1.085372427117463E-015  2.509844733686918E-016
 -9.756697469835036E-002
 -1.085372427117463E-015  0.238006831529780      -7.818374188565290E-016
 -1.395998720069494E-002
 -1.085372427117463E-015  0.481592278663057      -1.339453344177477E-015
  8.538568303926793E-002
 -1.085372427117463E-015  0.738999765427869      -1.044303287385936E-015
  1.836714037247758E-002
 -1.085372427117463E-015  0.929908211328272      -3.217674332869563E-016
 -2.478307851497453E-002
 -1.085372427117463E-015   1.00000000000000       0.000000000000000E+000
  0.000000000000000E+000
  0.238006831529780       -1.00000000000000       0.000000000000000E+000
  0.000000000000000E+000
  0.238006831529780      -0.929908211328273      -0.148865017682677     
  4.608908321442686E-003
  0.238006831529780      -0.738999765427872      -0.498339382684611     
  8.476866311656427E-002
  0.238006831529780      -0.481592278663059      -0.680627162170572     
  0.164852867341039     
  0.238006831529780      -0.238006831529782      -0.463575026486929     
  6.876179191583184E-002
  0.238006831529780      -1.085372427117463E-015 -9.022561651978194E-016
 -1.395998720069491E-002
  0.238006831529780       0.238006831529780       0.463575026486928     
  6.876179191583143E-002
  0.238006831529780       0.481592278663057       0.680627162170574     
  0.164852867341039     
  0.238006831529780       0.738999765427869       0.498339382684616     
  8.476866311656583E-002
  0.238006831529780       0.929908211328272       0.148865017682679     
  4.608908321442772E-003
  0.238006831529780        1.00000000000000       0.000000000000000E+000
  0.000000000000000E+000
  0.481592278663057       -1.00000000000000       0.000000000000000E+000
  0.000000000000000E+000
  0.481592278663057      -0.929908211328273      -0.218548018579306     
  3.800876663217934E-002
  0.481592278663057      -0.738999765427872      -0.731622235092380     
  0.159296326087728     
  0.481592278663057      -0.481592278663059      -0.999283623147069     
  0.254025019042643     
  0.481592278663057      -0.238006831529782      -0.680627162170575     
  0.164852867341040     
  0.481592278663057      -1.085372427117463E-015 -1.460578512999817E-015
  8.538568303926791E-002
  0.481592278663057       0.238006831529780       0.680627162170574     
  0.164852867341039     
  0.481592278663057       0.481592278663057       0.999283623147072     
  0.254025019042644     
  0.481592278663057       0.738999765427869       0.731622235092387     
  0.159296326087730     
  0.481592278663057       0.929908211328272       0.218548018579308     
  3.800876663217978E-002
  0.481592278663057        1.00000000000000       0.000000000000000E+000
  0.000000000000000E+000
  0.738999765427869       -1.00000000000000       0.000000000000000E+000
  0.000000000000000E+000
  0.738999765427869      -0.929908211328273      -0.159966957498841     
  7.278124644265402E-003
  0.738999765427869      -0.738999765427872      -0.535581565752489     
  8.416118757930602E-002
  0.738999765427869      -0.481592278663059      -0.731622235092385     
  0.159296326087730     
  0.738999765427869      -0.238006831529782      -0.498339382684617     
  8.476866311656620E-002
  0.738999765427869      -1.085372427117463E-015 -1.082196660123749E-015
  1.836714037247754E-002
  0.738999765427869       0.238006831529780       0.498339382684616     
  8.476866311656583E-002
  0.738999765427869       0.481592278663057       0.731622235092387     
  0.159296326087730     
  0.738999765427869       0.738999765427869       0.535581565752495     
  8.416118757930743E-002
  0.738999765427869       0.929908211328272       0.159966957498843     
  7.278124644265499E-003
  0.738999765427869        1.00000000000000       0.000000000000000E+000
  0.000000000000000E+000
  0.929908211328272       -1.00000000000000       0.000000000000000E+000
  0.000000000000000E+000
  0.929908211328272      -0.929908211328273      -4.777121472957848E-002
 -1.444064168225351E-002
  0.929908211328272      -0.738999765427872      -0.159966957498841     
  7.278124644265038E-003
  0.929908211328272      -0.481592278663059      -0.218548018579307     
  3.800876663217963E-002
  0.929908211328272      -0.238006831529782      -0.148865017682679     
  4.608908321442971E-003
  0.929908211328272      -1.085372427117463E-015 -3.237369955792959E-016
 -2.478307851497455E-002
  0.929908211328272       0.238006831529780       0.148865017682679     
  4.608908321442767E-003
  0.929908211328272       0.481592278663057       0.218548018579308     
  3.800876663217977E-002
  0.929908211328272       0.738999765427869       0.159966957498843     
  7.278124644265502E-003
  0.929908211328272       0.929908211328272       4.777121472957896E-002
 -1.444064168225361E-002
  0.929908211328272        1.00000000000000       0.000000000000000E+000
  0.000000000000000E+000
   1.00000000000000       -1.00000000000000       0.000000000000000E+000
  0.000000000000000E+000
   1.00000000000000      -0.929908211328273       0.000000000000000E+000
  0.000000000000000E+000
   1.00000000000000      -0.738999765427872       0.000000000000000E+000
  0.000000000000000E+000
   1.00000000000000      -0.481592278663059       0.000000000000000E+000
  0.000000000000000E+000
   1.00000000000000      -0.238006831529782       0.000000000000000E+000
  0.000000000000000E+000
   1.00000000000000      -1.085372427117463E-015  0.000000000000000E+000
  0.000000000000000E+000
   1.00000000000000       0.238006831529780       0.000000000000000E+000
  0.000000000000000E+000
   1.00000000000000       0.481592278663057       0.000000000000000E+000
  0.000000000000000E+000
   1.00000000000000       0.738999765427869       0.000000000000000E+000
  0.000000000000000E+000
   1.00000000000000       0.929908211328272       0.000000000000000E+000
  0.000000000000000E+000
   1.00000000000000        1.00000000000000       0.000000000000000E+000
  0.000000000000000E+000
