 VARIABLES =  $x$  (b)
 ZONE I=         441 ,DATAPACKING=POINT
 -0.100000000000000E+01 -0.100000000000000E+01  0.000000000000000E+00
 -0.100000000000000E+01 -0.955162973124140E+00  0.000000000000000E+00
 -0.100000000000000E+01 -0.848039647510822E+00  0.000000000000000E+00
 -0.100000000000000E+01 -0.741262543272473E+00  0.000000000000000E+00
 -0.100000000000000E+01 -0.635605065171759E+00  0.000000000000000E+00
 -0.100000000000000E+01 -0.529610856542781E+00  0.000000000000000E+00
 -0.100000000000000E+01 -0.423704436434061E+00  0.000000000000000E+00
 -0.100000000000000E+01 -0.317774315082929E+00  0.000000000000000E+00
 -0.100000000000000E+01 -0.211850529508475E+00  0.000000000000000E+00
 -0.100000000000000E+01 -0.105925053478478E+00  0.000000000000000E+00
 -0.100000000000000E+01 -0.790519978293986E-17  0.000000000000000E+00
 -0.100000000000000E+01  0.105925053478478E+00  0.000000000000000E+00
 -0.100000000000000E+01  0.211850529508475E+00  0.000000000000000E+00
 -0.100000000000000E+01  0.317774315082929E+00  0.000000000000000E+00
 -0.100000000000000E+01  0.423704436434061E+00  0.000000000000000E+00
 -0.100000000000000E+01  0.529610856542781E+00  0.000000000000000E+00
 -0.100000000000000E+01  0.635605065171759E+00  0.000000000000000E+00
 -0.100000000000000E+01  0.741262543272473E+00  0.000000000000000E+00
 -0.100000000000000E+01  0.848039647510822E+00  0.000000000000000E+00
 -0.100000000000000E+01  0.955162973124140E+00  0.000000000000000E+00
 -0.100000000000000E+01  0.100000000000000E+01  0.000000000000000E+00
 -0.955162973124140E+00 -0.100000000000000E+01  0.000000000000000E+00
 -0.955162973124140E+00 -0.955162973124140E+00  0.748306074494943E-02
 -0.955162973124140E+00 -0.848039647510822E+00  0.235687883209691E-01
 -0.955162973124140E+00 -0.741262543272473E+00  0.354967803081310E-01
 -0.955162973124140E+00 -0.635605065171759E+00  0.424396041769928E-01
 -0.955162973124140E+00 -0.529610856542781E+00  0.444288824603528E-01
 -0.955162973124140E+00 -0.423704436434061E+00  0.417661711378435E-01
 -0.955162973124140E+00 -0.317774315082929E+00  0.350834700993537E-01
 -0.955162973124140E+00 -0.211850529508475E+00  0.252233621424685E-01
 -0.955162973124140E+00 -0.105925053478478E+00  0.131705561890713E-01
 -0.955162973124140E+00 -0.790519978293986E-17 -0.237673041949205E-15
 -0.955162973124140E+00  0.105925053478478E+00 -0.131705561890717E-01
 -0.955162973124140E+00  0.211850529508475E+00 -0.252233621424689E-01
 -0.955162973124140E+00  0.317774315082929E+00 -0.350834700993541E-01
 -0.955162973124140E+00  0.423704436434061E+00 -0.417661711378438E-01
 -0.955162973124140E+00  0.529610856542781E+00 -0.444288824603530E-01
 -0.955162973124140E+00  0.635605065171759E+00 -0.424396041769929E-01
 -0.955162973124140E+00  0.741262543272473E+00 -0.354967803081311E-01
 -0.955162973124140E+00  0.848039647510822E+00 -0.235687883209692E-01
 -0.955162973124140E+00  0.955162973124140E+00 -0.748306074494946E-02
 -0.955162973124140E+00  0.100000000000000E+01  0.000000000000000E+00
 -0.848039647510822E+00 -0.100000000000000E+01  0.000000000000000E+00
 -0.848039647510822E+00 -0.955162973124140E+00  0.242005924751751E-01
 -0.848039647510822E+00 -0.848039647510822E+00  0.767995841602464E-01
 -0.848039647510822E+00 -0.741262543272473E+00  0.116281683181505E+00
 -0.848039647510822E+00 -0.635605065171759E+00  0.139515087857826E+00
 -0.848039647510822E+00 -0.529610856542781E+00  0.146410081667957E+00
 -0.848039647510822E+00 -0.423704436434061E+00  0.137868925945182E+00
 -0.848039647510822E+00 -0.317774315082929E+00  0.115945085321228E+00
 -0.848039647510822E+00 -0.211850529508475E+00  0.834229957813535E-01
 -0.848039647510822E+00 -0.105925053478478E+00  0.435788656889416E-01
 -0.848039647510822E+00 -0.790519978293986E-17 -0.797542167046277E-15
 -0.848039647510822E+00  0.105925053478478E+00 -0.435788656889431E-01
 -0.848039647510822E+00  0.211850529508475E+00 -0.834229957813549E-01
 -0.848039647510822E+00  0.317774315082929E+00 -0.115945085321230E+00
 -0.848039647510822E+00  0.423704436434061E+00 -0.137868925945183E+00
 -0.848039647510822E+00  0.529610856542781E+00 -0.146410081667958E+00
 -0.848039647510822E+00  0.635605065171759E+00 -0.139515087857826E+00
 -0.848039647510822E+00  0.741262543272473E+00 -0.116281683181505E+00
 -0.848039647510822E+00  0.848039647510822E+00 -0.767995841602467E-01
 -0.848039647510822E+00  0.955162973124140E+00 -0.242005924751752E-01
 -0.848039647510822E+00  0.100000000000000E+01  0.000000000000000E+00
 -0.741262543272473E+00 -0.100000000000000E+01  0.000000000000000E+00
 -0.741262543272473E+00 -0.955162973124140E+00  0.385191996474167E-01
 -0.741262543272473E+00 -0.848039647510822E+00  0.122880004357346E+00
 -0.741262543272473E+00 -0.741262543272473E+00  0.187056424621838E+00
 -0.741262543272473E+00 -0.635605065171759E+00  0.225391844467902E+00
 -0.741262543272473E+00 -0.529610856542781E+00  0.237299986825348E+00
 -0.741262543272473E+00 -0.423704436434061E+00  0.223991042065375E+00
 -0.741262543272473E+00 -0.317774315082929E+00  0.188693328840197E+00
 -0.741262543272473E+00 -0.211850529508475E+00  0.135920476701263E+00
 -0.741262543272473E+00 -0.105925053478478E+00  0.710492138389861E-01
 -0.741262543272473E+00 -0.790519978293986E-17 -0.132894530355280E-14
 -0.741262543272473E+00  0.105925053478478E+00 -0.710492138389887E-01
 -0.741262543272473E+00  0.211850529508475E+00 -0.135920476701265E+00
 -0.741262543272473E+00  0.317774315082929E+00 -0.188693328840199E+00
 -0.741262543272473E+00  0.423704436434061E+00 -0.223991042065376E+00
 -0.741262543272473E+00  0.529610856542781E+00 -0.237299986825349E+00
 -0.741262543272473E+00  0.635605065171759E+00 -0.225391844467903E+00
 -0.741262543272473E+00  0.741262543272473E+00 -0.187056424621839E+00
 -0.741262543272473E+00  0.848039647510822E+00 -0.122880004357346E+00
 -0.741262543272473E+00  0.955162973124140E+00 -0.385191996474169E-01
 -0.741262543272473E+00  0.100000000000000E+01  0.000000000000000E+00
 -0.635605065171759E+00 -0.100000000000000E+01  0.000000000000000E+00
 -0.635605065171759E+00 -0.955162973124140E+00  0.502155554406542E-01
 -0.635605065171759E+00 -0.848039647510822E+00  0.160739286088516E+00
 -0.635605065171759E+00 -0.741262543272473E+00  0.245715306884626E+00
 -0.635605065171759E+00 -0.635605065171759E+00  0.297175648267495E+00
 -0.635605065171759E+00 -0.529610856542781E+00  0.313830303251361E+00
 -0.635605065171759E+00 -0.423704436434061E+00  0.296927346459922E+00
 -0.635605065171759E+00 -0.317774315082929E+00  0.250570194278956E+00
 -0.635605065171759E+00 -0.211850529508475E+00  0.180705900433249E+00
 -0.635605065171759E+00 -0.105925053478478E+00  0.945248572224723E-01
 -0.635605065171759E+00 -0.790519978293986E-17 -0.179781633318727E-14
 -0.635605065171759E+00  0.105925053478478E+00 -0.945248572224758E-01
 -0.635605065171759E+00  0.211850529508475E+00 -0.180705900433253E+00
 -0.635605065171759E+00  0.317774315082929E+00 -0.250570194278959E+00
 -0.635605065171759E+00  0.423704436434061E+00 -0.296927346459925E+00
 -0.635605065171759E+00  0.529610856542781E+00 -0.313830303251363E+00
 -0.635605065171759E+00  0.635605065171759E+00 -0.297175648267497E+00
 -0.635605065171759E+00  0.741262543272473E+00 -0.245715306884627E+00
 -0.635605065171759E+00  0.848039647510822E+00 -0.160739286088517E+00
 -0.635605065171759E+00  0.955162973124140E+00 -0.502155554406545E-01
 -0.635605065171759E+00  0.100000000000000E+01  0.000000000000000E+00
 -0.529610856542781E+00 -0.100000000000000E+01  0.000000000000000E+00
 -0.529610856542781E+00 -0.955162973124140E+00  0.596044039172607E-01
 -0.529610856542781E+00 -0.848039647510822E+00  0.191232886461512E+00
 -0.529610856542781E+00 -0.741262543272473E+00  0.293238192078557E+00
 -0.529610856542781E+00 -0.635605065171759E+00  0.355704777322535E+00
 -0.529610856542781E+00 -0.529610856542781E+00  0.376603785955782E+00
 -0.529610856542781E+00 -0.423704436434061E+00  0.357055356724055E+00
 -0.529610856542781E+00 -0.317774315082929E+00  0.301781870287317E+00
 -0.529610856542781E+00 -0.211850529508475E+00  0.217875387253095E+00
 -0.529610856542781E+00 -0.105925053478478E+00  0.114040636599107E+00
 -0.529610856542781E+00 -0.790519978293986E-17 -0.221514065635401E-14
 -0.529610856542781E+00  0.105925053478478E+00 -0.114040636599111E+00
 -0.529610856542781E+00  0.211850529508475E+00 -0.217875387253099E+00
 -0.529610856542781E+00  0.317774315082929E+00 -0.301781870287320E+00
 -0.529610856542781E+00  0.423704436434061E+00 -0.357055356724058E+00
 -0.529610856542781E+00  0.529610856542781E+00 -0.376603785955784E+00
 -0.529610856542781E+00  0.635605065171759E+00 -0.355704777322537E+00
 -0.529610856542781E+00  0.741262543272473E+00 -0.293238192078558E+00
 -0.529610856542781E+00  0.848039647510822E+00 -0.191232886461513E+00
 -0.529610856542781E+00  0.955162973124140E+00 -0.596044039172610E-01
 -0.529610856542781E+00  0.100000000000000E+01  0.000000000000000E+00
 -0.423704436434061E+00 -0.100000000000000E+01  0.000000000000000E+00
 -0.423704436434061E+00 -0.955162973124140E+00  0.668614176954982E-01
 -0.423704436434061E+00 -0.848039647510822E+00  0.214853049637639E+00
 -0.423704436434061E+00 -0.741262543272473E+00  0.330191518874040E+00
 -0.423704436434061E+00 -0.635605065171759E+00  0.401424426447886E+00
 -0.423704436434061E+00 -0.529610856542781E+00  0.425862145171823E+00
 -0.423704436434061E+00 -0.423704436434061E+00  0.404428037906362E+00
 -0.423704436434061E+00 -0.317774315082929E+00  0.342261082346590E+00
 -0.423704436434061E+00 -0.211850529508475E+00  0.247324649259625E+00
 -0.423704436434061E+00 -0.105925053478478E+00  0.129524956397277E+00
 -0.423704436434061E+00 -0.790519978293986E-17 -0.257692892441754E-14
 -0.423704436434061E+00  0.105925053478478E+00 -0.129524956397282E+00
 -0.423704436434061E+00  0.211850529508475E+00 -0.247324649259630E+00
 -0.423704436434061E+00  0.317774315082929E+00 -0.342261082346594E+00
 -0.423704436434061E+00  0.423704436434061E+00 -0.404428037906366E+00
 -0.423704436434061E+00  0.529610856542781E+00 -0.425862145171825E+00
 -0.423704436434061E+00  0.635605065171759E+00 -0.401424426447888E+00
 -0.423704436434061E+00  0.741262543272473E+00 -0.330191518874042E+00
 -0.423704436434061E+00  0.848039647510822E+00 -0.214853049637640E+00
 -0.423704436434061E+00  0.955162973124140E+00 -0.668614176954986E-01
 -0.423704436434061E+00  0.100000000000000E+01  0.000000000000000E+00
 -0.317774315082929E+00 -0.100000000000000E+01  0.000000000000000E+00
 -0.317774315082929E+00 -0.955162973124140E+00  0.722286455806029E-01
 -0.317774315082929E+00 -0.848039647510822E+00  0.232346313553823E+00
 -0.317774315082929E+00 -0.741262543272473E+00  0.357629027838369E+00
 -0.317774315082929E+00 -0.635605065171759E+00  0.435477587207793E+00
 -0.317774315082929E+00 -0.529610856542781E+00  0.462671091134583E+00
 -0.317774315082929E+00 -0.423704436434061E+00  0.439934306205166E+00
 -0.317774315082929E+00 -0.317774315082929E+00  0.372676427456500E+00
 -0.317774315082929E+00 -0.211850529508475E+00  0.269493224700207E+00
 -0.317774315082929E+00 -0.105925053478478E+00  0.141194293872178E+00
 -0.317774315082929E+00 -0.790519978293986E-17 -0.284546506952494E-14
 -0.317774315082929E+00  0.105925053478478E+00 -0.141194293872183E+00
 -0.317774315082929E+00  0.211850529508475E+00 -0.269493224700212E+00
 -0.317774315082929E+00  0.317774315082929E+00 -0.372676427456505E+00
 -0.317774315082929E+00  0.423704436434061E+00 -0.439934306205170E+00
 -0.317774315082929E+00  0.529610856542781E+00 -0.462671091134586E+00
 -0.317774315082929E+00  0.635605065171759E+00 -0.435477587207795E+00
 -0.317774315082929E+00  0.741262543272473E+00 -0.357629027838370E+00
 -0.317774315082929E+00  0.848039647510822E+00 -0.232346313553824E+00
 -0.317774315082929E+00  0.955162973124140E+00 -0.722286455806033E-01
 -0.317774315082929E+00  0.100000000000000E+01  0.000000000000000E+00
 -0.211850529508475E+00 -0.100000000000000E+01  0.000000000000000E+00
 -0.211850529508475E+00 -0.955162973124140E+00  0.759070421356250E-01
 -0.211850529508475E+00 -0.848039647510822E+00  0.244345645210753E+00
 -0.211850529508475E+00 -0.741262543272473E+00  0.376480299930977E+00
 -0.211850529508475E+00 -0.635605065171759E+00  0.458922846954031E+00
 -0.211850529508475E+00 -0.529610856542781E+00  0.488070095960249E+00
 -0.211850529508475E+00 -0.423704436434061E+00  0.464485848882289E+00
 -0.211850529508475E+00 -0.317774315082929E+00  0.393745204164267E+00
 -0.211850529508475E+00 -0.211850529508475E+00  0.284870017714917E+00
 -0.211850529508475E+00 -0.105925053478478E+00  0.149295193506979E+00
 -0.211850529508475E+00 -0.790519978293986E-17 -0.304131121922189E-14
 -0.211850529508475E+00  0.105925053478478E+00 -0.149295193506986E+00
 -0.211850529508475E+00  0.211850529508475E+00 -0.284870017714922E+00
 -0.211850529508475E+00  0.317774315082929E+00 -0.393745204164272E+00
 -0.211850529508475E+00  0.423704436434061E+00 -0.464485848882293E+00
 -0.211850529508475E+00  0.529610856542781E+00 -0.488070095960252E+00
 -0.211850529508475E+00  0.635605065171759E+00 -0.458922846954034E+00
 -0.211850529508475E+00  0.741262543272473E+00 -0.376480299930979E+00
 -0.211850529508475E+00  0.848039647510822E+00 -0.244345645210754E+00
 -0.211850529508475E+00  0.955162973124140E+00 -0.759070421356254E-01
 -0.211850529508475E+00  0.100000000000000E+01  0.000000000000000E+00
 -0.105925053478478E+00 -0.100000000000000E+01  0.000000000000000E+00
 -0.105925053478478E+00 -0.955162973124140E+00  0.780507194297138E-01
 -0.105925053478478E+00 -0.848039647510822E+00  0.251342152458289E+00
 -0.105925053478478E+00 -0.741262543272473E+00  0.387482725833277E+00
 -0.105925053478478E+00 -0.635605065171759E+00  0.472623766623969E+00
 -0.105925053478478E+00 -0.529610856542781E+00  0.502933138453753E+00
 -0.105925053478478E+00 -0.423704436434061E+00  0.478871899947656E+00
 -0.105925053478478E+00 -0.317774315082929E+00  0.406104520166107E+00
 -0.105925053478478E+00 -0.211850529508475E+00  0.293898095387445E+00
 -0.105925053478478E+00 -0.105925053478478E+00  0.154053973948719E+00
 -0.105925053478478E+00 -0.790519978293986E-17 -0.310348993165191E-14
 -0.105925053478478E+00  0.105925053478478E+00 -0.154053973948725E+00
 -0.105925053478478E+00  0.211850529508475E+00 -0.293898095387451E+00
 -0.105925053478478E+00  0.317774315082929E+00 -0.406104520166112E+00
 -0.105925053478478E+00  0.423704436434061E+00 -0.478871899947661E+00
 -0.105925053478478E+00  0.529610856542781E+00 -0.502933138453757E+00
 -0.105925053478478E+00  0.635605065171759E+00 -0.472623766623971E+00
 -0.105925053478478E+00  0.741262543272473E+00 -0.387482725833279E+00
 -0.105925053478478E+00  0.848039647510822E+00 -0.251342152458290E+00
 -0.105925053478478E+00  0.955162973124140E+00 -0.780507194297142E-01
 -0.105925053478478E+00  0.100000000000000E+01  0.000000000000000E+00
 -0.790519978293986E-17 -0.100000000000000E+01  0.000000000000000E+00
 -0.790519978293986E-17 -0.955162973124140E+00  0.787545905922487E-01
 -0.790519978293986E-17 -0.848039647510822E+00  0.253639988252036E+00
 -0.790519978293986E-17 -0.741262543272473E+00  0.391097858155267E+00
 -0.790519978293986E-17 -0.635605065171759E+00  0.477128233383229E+00
 -0.790519978293986E-17 -0.529610856542781E+00  0.507822874402828E+00
 -0.790519978293986E-17 -0.423704436434061E+00  0.483607709287081E+00
 -0.790519978293986E-17 -0.317774315082929E+00  0.410175375759732E+00
 -0.790519978293986E-17 -0.211850529508475E+00  0.296872973633267E+00
 -0.790519978293986E-17 -0.105925053478478E+00  0.155622470907190E+00
 -0.790519978293986E-17 -0.790519978293986E-17 -0.305261903154010E-14
 -0.790519978293986E-17  0.105925053478478E+00 -0.155622470907196E+00
 -0.790519978293986E-17  0.211850529508475E+00 -0.296872973633273E+00
 -0.790519978293986E-17  0.317774315082929E+00 -0.410175375759737E+00
 -0.790519978293986E-17  0.423704436434061E+00 -0.483607709287086E+00
 -0.790519978293986E-17  0.529610856542781E+00 -0.507822874402832E+00
 -0.790519978293986E-17  0.635605065171759E+00 -0.477128233383231E+00
 -0.790519978293986E-17  0.741262543272473E+00 -0.391097858155269E+00
 -0.790519978293986E-17  0.848039647510822E+00 -0.253639988252037E+00
 -0.790519978293986E-17  0.955162973124140E+00 -0.787545905922490E-01
 -0.790519978293986E-17  0.100000000000000E+01  0.000000000000000E+00
  0.105925053478478E+00 -0.100000000000000E+01  0.000000000000000E+00
  0.105925053478478E+00 -0.955162973124140E+00  0.780507194297139E-01
  0.105925053478478E+00 -0.848039647510822E+00  0.251342152458289E+00
  0.105925053478478E+00 -0.741262543272473E+00  0.387482725833278E+00
  0.105925053478478E+00 -0.635605065171759E+00  0.472623766623970E+00
  0.105925053478478E+00 -0.529610856542781E+00  0.502933138453754E+00
  0.105925053478478E+00 -0.423704436434061E+00  0.478871899947657E+00
  0.105925053478478E+00 -0.317774315082929E+00  0.406104520166108E+00
  0.105925053478478E+00 -0.211850529508475E+00  0.293898095387445E+00
  0.105925053478478E+00 -0.105925053478478E+00  0.154053973948719E+00
  0.105925053478478E+00 -0.790519978293986E-17 -0.286833593577854E-14
  0.105925053478478E+00  0.105925053478478E+00 -0.154053973948725E+00
  0.105925053478478E+00  0.211850529508475E+00 -0.293898095387451E+00
  0.105925053478478E+00  0.317774315082929E+00 -0.406104520166113E+00
  0.105925053478478E+00  0.423704436434061E+00 -0.478871899947661E+00
  0.105925053478478E+00  0.529610856542781E+00 -0.502933138453757E+00
  0.105925053478478E+00  0.635605065171759E+00 -0.472623766623972E+00
  0.105925053478478E+00  0.741262543272473E+00 -0.387482725833279E+00
  0.105925053478478E+00  0.848039647510822E+00 -0.251342152458290E+00
  0.105925053478478E+00  0.955162973124140E+00 -0.780507194297143E-01
  0.105925053478478E+00  0.100000000000000E+01  0.000000000000000E+00
  0.211850529508475E+00 -0.100000000000000E+01  0.000000000000000E+00
  0.211850529508475E+00 -0.955162973124140E+00  0.759070421356251E-01
  0.211850529508475E+00 -0.848039647510822E+00  0.244345645210753E+00
  0.211850529508475E+00 -0.741262543272473E+00  0.376480299930977E+00
  0.211850529508475E+00 -0.635605065171759E+00  0.458922846954032E+00
  0.211850529508475E+00 -0.529610856542781E+00  0.488070095960249E+00
  0.211850529508475E+00 -0.423704436434061E+00  0.464485848882290E+00
  0.211850529508475E+00 -0.317774315082929E+00  0.393745204164268E+00
  0.211850529508475E+00 -0.211850529508475E+00  0.284870017714918E+00
  0.211850529508475E+00 -0.105925053478478E+00  0.149295193506980E+00
  0.211850529508475E+00 -0.790519978293986E-17 -0.262238539788695E-14
  0.211850529508475E+00  0.105925053478478E+00 -0.149295193506985E+00
  0.211850529508475E+00  0.211850529508475E+00 -0.284870017714922E+00
  0.211850529508475E+00  0.317774315082929E+00 -0.393745204164272E+00
  0.211850529508475E+00  0.423704436434061E+00 -0.464485848882293E+00
  0.211850529508475E+00  0.529610856542781E+00 -0.488070095960252E+00
  0.211850529508475E+00  0.635605065171759E+00 -0.458922846954034E+00
  0.211850529508475E+00  0.741262543272473E+00 -0.376480299930979E+00
  0.211850529508475E+00  0.848039647510822E+00 -0.244345645210754E+00
  0.211850529508475E+00  0.955162973124140E+00 -0.759070421356255E-01
  0.211850529508475E+00  0.100000000000000E+01  0.000000000000000E+00
  0.317774315082929E+00 -0.100000000000000E+01  0.000000000000000E+00
  0.317774315082929E+00 -0.955162973124140E+00  0.722286455806030E-01
  0.317774315082929E+00 -0.848039647510822E+00  0.232346313553823E+00
  0.317774315082929E+00 -0.741262543272473E+00  0.357629027838369E+00
  0.317774315082929E+00 -0.635605065171759E+00  0.435477587207793E+00
  0.317774315082929E+00 -0.529610856542781E+00  0.462671091134583E+00
  0.317774315082929E+00 -0.423704436434061E+00  0.439934306205166E+00
  0.317774315082929E+00 -0.317774315082929E+00  0.372676427456501E+00
  0.317774315082929E+00 -0.211850529508475E+00  0.269493224700208E+00
  0.317774315082929E+00 -0.105925053478478E+00  0.141194293872178E+00
  0.317774315082929E+00 -0.790519978293986E-17 -0.235579751027031E-14
  0.317774315082929E+00  0.105925053478478E+00 -0.141194293872183E+00
  0.317774315082929E+00  0.211850529508475E+00 -0.269493224700212E+00
  0.317774315082929E+00  0.317774315082929E+00 -0.372676427456505E+00
  0.317774315082929E+00  0.423704436434061E+00 -0.439934306205169E+00
  0.317774315082929E+00  0.529610856542781E+00 -0.462671091134585E+00
  0.317774315082929E+00  0.635605065171759E+00 -0.435477587207795E+00
  0.317774315082929E+00  0.741262543272473E+00 -0.357629027838370E+00
  0.317774315082929E+00  0.848039647510822E+00 -0.232346313553824E+00
  0.317774315082929E+00  0.955162973124140E+00 -0.722286455806033E-01
  0.317774315082929E+00  0.100000000000000E+01  0.000000000000000E+00
  0.423704436434061E+00 -0.100000000000000E+01  0.000000000000000E+00
  0.423704436434061E+00 -0.955162973124140E+00  0.668614176954982E-01
  0.423704436434061E+00 -0.848039647510822E+00  0.214853049637639E+00
  0.423704436434061E+00 -0.741262543272473E+00  0.330191518874040E+00
  0.423704436434061E+00 -0.635605065171759E+00  0.401424426447887E+00
  0.423704436434061E+00 -0.529610856542781E+00  0.425862145171823E+00
  0.423704436434061E+00 -0.423704436434061E+00  0.404428037906363E+00
  0.423704436434061E+00 -0.317774315082929E+00  0.342261082346590E+00
  0.423704436434061E+00 -0.211850529508475E+00  0.247324649259626E+00
  0.423704436434061E+00 -0.105925053478478E+00  0.129524956397278E+00
  0.423704436434061E+00 -0.790519978293986E-17 -0.203763045232199E-14
  0.423704436434061E+00  0.105925053478478E+00 -0.129524956397282E+00
  0.423704436434061E+00  0.211850529508475E+00 -0.247324649259629E+00
  0.423704436434061E+00  0.317774315082929E+00 -0.342261082346593E+00
  0.423704436434061E+00  0.423704436434061E+00 -0.404428037906365E+00
  0.423704436434061E+00  0.529610856542781E+00 -0.425862145171825E+00
  0.423704436434061E+00  0.635605065171759E+00 -0.401424426447888E+00
  0.423704436434061E+00  0.741262543272473E+00 -0.330191518874041E+00
  0.423704436434061E+00  0.848039647510822E+00 -0.214853049637640E+00
  0.423704436434061E+00  0.955162973124140E+00 -0.668614176954985E-01
  0.423704436434061E+00  0.100000000000000E+01  0.000000000000000E+00
  0.529610856542781E+00 -0.100000000000000E+01  0.000000000000000E+00
  0.529610856542781E+00 -0.955162973124140E+00  0.596044039172607E-01
  0.529610856542781E+00 -0.848039647510822E+00  0.191232886461512E+00
  0.529610856542781E+00 -0.741262543272473E+00  0.293238192078557E+00
  0.529610856542781E+00 -0.635605065171759E+00  0.355704777322535E+00
  0.529610856542781E+00 -0.529610856542781E+00  0.376603785955782E+00
  0.529610856542781E+00 -0.423704436434061E+00  0.357055356724055E+00
  0.529610856542781E+00 -0.317774315082929E+00  0.301781870287317E+00
  0.529610856542781E+00 -0.211850529508475E+00  0.217875387253095E+00
  0.529610856542781E+00 -0.105925053478478E+00  0.114040636599107E+00
  0.529610856542781E+00 -0.790519978293986E-17 -0.172973401958885E-14
  0.529610856542781E+00  0.105925053478478E+00 -0.114040636599110E+00
  0.529610856542781E+00  0.211850529508475E+00 -0.217875387253098E+00
  0.529610856542781E+00  0.317774315082929E+00 -0.301781870287319E+00
  0.529610856542781E+00  0.423704436434061E+00 -0.357055356724057E+00
  0.529610856542781E+00  0.529610856542781E+00 -0.376603785955783E+00
  0.529610856542781E+00  0.635605065171759E+00 -0.355704777322536E+00
  0.529610856542781E+00  0.741262543272473E+00 -0.293238192078557E+00
  0.529610856542781E+00  0.848039647510822E+00 -0.191232886461513E+00
  0.529610856542781E+00  0.955162973124140E+00 -0.596044039172609E-01
  0.529610856542781E+00  0.100000000000000E+01  0.000000000000000E+00
  0.635605065171759E+00 -0.100000000000000E+01  0.000000000000000E+00
  0.635605065171759E+00 -0.955162973124140E+00  0.502155554406542E-01
  0.635605065171759E+00 -0.848039647510822E+00  0.160739286088516E+00
  0.635605065171759E+00 -0.741262543272473E+00  0.245715306884626E+00
  0.635605065171759E+00 -0.635605065171759E+00  0.297175648267496E+00
  0.635605065171759E+00 -0.529610856542781E+00  0.313830303251361E+00
  0.635605065171759E+00 -0.423704436434061E+00  0.296927346459923E+00
  0.635605065171759E+00 -0.317774315082929E+00  0.250570194278956E+00
  0.635605065171759E+00 -0.211850529508475E+00  0.180705900433250E+00
  0.635605065171759E+00 -0.105925053478478E+00  0.945248572224726E-01
  0.635605065171759E+00 -0.790519978293986E-17 -0.137889949289365E-14
  0.635605065171759E+00  0.105925053478478E+00 -0.945248572224753E-01
  0.635605065171759E+00  0.211850529508475E+00 -0.180705900433252E+00
  0.635605065171759E+00  0.317774315082929E+00 -0.250570194278958E+00
  0.635605065171759E+00  0.423704436434061E+00 -0.296927346459924E+00
  0.635605065171759E+00  0.529610856542781E+00 -0.313830303251362E+00
  0.635605065171759E+00  0.635605065171759E+00 -0.297175648267496E+00
  0.635605065171759E+00  0.741262543272473E+00 -0.245715306884626E+00
  0.635605065171759E+00  0.848039647510822E+00 -0.160739286088517E+00
  0.635605065171759E+00  0.955162973124140E+00 -0.502155554406544E-01
  0.635605065171759E+00  0.100000000000000E+01  0.000000000000000E+00
  0.741262543272473E+00 -0.100000000000000E+01  0.000000000000000E+00
  0.741262543272473E+00 -0.955162973124140E+00  0.385191996474167E-01
  0.741262543272473E+00 -0.848039647510822E+00  0.122880004357346E+00
  0.741262543272473E+00 -0.741262543272473E+00  0.187056424621838E+00
  0.741262543272473E+00 -0.635605065171759E+00  0.225391844467902E+00
  0.741262543272473E+00 -0.529610856542781E+00  0.237299986825348E+00
  0.741262543272473E+00 -0.423704436434061E+00  0.223991042065375E+00
  0.741262543272473E+00 -0.317774315082929E+00  0.188693328840197E+00
  0.741262543272473E+00 -0.211850529508475E+00  0.135920476701263E+00
  0.741262543272473E+00 -0.105925053478478E+00  0.710492138389863E-01
  0.741262543272473E+00 -0.790519978293986E-17 -0.101250299707119E-14
  0.741262543272473E+00  0.105925053478478E+00 -0.710492138389883E-01
  0.741262543272473E+00  0.211850529508475E+00 -0.135920476701265E+00
  0.741262543272473E+00  0.317774315082929E+00 -0.188693328840198E+00
  0.741262543272473E+00  0.423704436434061E+00 -0.223991042065376E+00
  0.741262543272473E+00  0.529610856542781E+00 -0.237299986825349E+00
  0.741262543272473E+00  0.635605065171759E+00 -0.225391844467902E+00
  0.741262543272473E+00  0.741262543272473E+00 -0.187056424621839E+00
  0.741262543272473E+00  0.848039647510822E+00 -0.122880004357346E+00
  0.741262543272473E+00  0.955162973124140E+00 -0.385191996474168E-01
  0.741262543272473E+00  0.100000000000000E+01  0.000000000000000E+00
  0.848039647510822E+00 -0.100000000000000E+01  0.000000000000000E+00
  0.848039647510822E+00 -0.955162973124140E+00  0.242005924751751E-01
  0.848039647510822E+00 -0.848039647510822E+00  0.767995841602465E-01
  0.848039647510822E+00 -0.741262543272473E+00  0.116281683181505E+00
  0.848039647510822E+00 -0.635605065171759E+00  0.139515087857826E+00
  0.848039647510822E+00 -0.529610856542781E+00  0.146410081667957E+00
  0.848039647510822E+00 -0.423704436434061E+00  0.137868925945182E+00
  0.848039647510822E+00 -0.317774315082929E+00  0.115945085321228E+00
  0.848039647510822E+00 -0.211850529508475E+00  0.834229957813536E-01
  0.848039647510822E+00 -0.105925053478478E+00  0.435788656889417E-01
  0.848039647510822E+00 -0.790519978293986E-17 -0.604811121440247E-15
  0.848039647510822E+00  0.105925053478478E+00 -0.435788656889429E-01
  0.848039647510822E+00  0.211850529508475E+00 -0.834229957813547E-01
  0.848039647510822E+00  0.317774315082929E+00 -0.115945085321229E+00
  0.848039647510822E+00  0.423704436434061E+00 -0.137868925945183E+00
  0.848039647510822E+00  0.529610856542781E+00 -0.146410081667958E+00
  0.848039647510822E+00  0.635605065171759E+00 -0.139515087857826E+00
  0.848039647510822E+00  0.741262543272473E+00 -0.116281683181505E+00
  0.848039647510822E+00  0.848039647510822E+00 -0.767995841602466E-01
  0.848039647510822E+00  0.955162973124140E+00 -0.242005924751752E-01
  0.848039647510822E+00  0.100000000000000E+01  0.000000000000000E+00
  0.955162973124140E+00 -0.100000000000000E+01  0.000000000000000E+00
  0.955162973124140E+00 -0.955162973124140E+00  0.748306074494944E-02
  0.955162973124140E+00 -0.848039647510822E+00  0.235687883209691E-01
  0.955162973124140E+00 -0.741262543272473E+00  0.354967803081311E-01
  0.955162973124140E+00 -0.635605065171759E+00  0.424396041769928E-01
  0.955162973124140E+00 -0.529610856542781E+00  0.444288824603529E-01
  0.955162973124140E+00 -0.423704436434061E+00  0.417661711378436E-01
  0.955162973124140E+00 -0.317774315082929E+00  0.350834700993538E-01
  0.955162973124140E+00 -0.211850529508475E+00  0.252233621424686E-01
  0.955162973124140E+00 -0.105925053478478E+00  0.131705561890713E-01
  0.955162973124140E+00 -0.790519978293986E-17 -0.181578164587779E-15
  0.955162973124140E+00  0.105925053478478E+00 -0.131705561890717E-01
  0.955162973124140E+00  0.211850529508475E+00 -0.252233621424689E-01
  0.955162973124140E+00  0.317774315082929E+00 -0.350834700993540E-01
  0.955162973124140E+00  0.423704436434061E+00 -0.417661711378438E-01
  0.955162973124140E+00  0.529610856542781E+00 -0.444288824603530E-01
  0.955162973124140E+00  0.635605065171759E+00 -0.424396041769929E-01
  0.955162973124140E+00  0.741262543272473E+00 -0.354967803081311E-01
  0.955162973124140E+00  0.848039647510822E+00 -0.235687883209692E-01
  0.955162973124140E+00  0.955162973124140E+00 -0.748306074494946E-02
  0.955162973124140E+00  0.100000000000000E+01  0.000000000000000E+00
  0.100000000000000E+01 -0.100000000000000E+01  0.000000000000000E+00
  0.100000000000000E+01 -0.955162973124140E+00  0.000000000000000E+00
  0.100000000000000E+01 -0.848039647510822E+00  0.000000000000000E+00
  0.100000000000000E+01 -0.741262543272473E+00  0.000000000000000E+00
  0.100000000000000E+01 -0.635605065171759E+00  0.000000000000000E+00
  0.100000000000000E+01 -0.529610856542781E+00  0.000000000000000E+00
  0.100000000000000E+01 -0.423704436434061E+00  0.000000000000000E+00