 VARIABLES =  $x$  (b)
 ZONE I=         441 ,DATAPACKING=POINT
 -0.100000000000000E+01 -0.100000000000000E+01  0.000000000000000E+00
 -0.100000000000000E+01 -0.955162973124140E+00  0.000000000000000E+00
 -0.100000000000000E+01 -0.848039647510822E+00  0.000000000000000E+00
 -0.100000000000000E+01 -0.741262543272473E+00  0.000000000000000E+00
 -0.100000000000000E+01 -0.635605065171759E+00  0.000000000000000E+00
 -0.100000000000000E+01 -0.529610856542781E+00  0.000000000000000E+00
 -0.100000000000000E+01 -0.423704436434061E+00  0.000000000000000E+00
 -0.100000000000000E+01 -0.317774315082929E+00  0.000000000000000E+00
 -0.100000000000000E+01 -0.211850529508475E+00  0.000000000000000E+00
 -0.100000000000000E+01 -0.105925053478478E+00  0.000000000000000E+00
 -0.100000000000000E+01 -0.790519978293986E-17  0.000000000000000E+00
 -0.100000000000000E+01  0.105925053478478E+00  0.000000000000000E+00
 -0.100000000000000E+01  0.211850529508475E+00  0.000000000000000E+00
 -0.100000000000000E+01  0.317774315082929E+00  0.000000000000000E+00
 -0.100000000000000E+01  0.423704436434061E+00  0.000000000000000E+00
 -0.100000000000000E+01  0.529610856542781E+00  0.000000000000000E+00
 -0.100000000000000E+01  0.635605065171759E+00  0.000000000000000E+00
 -0.100000000000000E+01  0.741262543272473E+00  0.000000000000000E+00
 -0.100000000000000E+01  0.848039647510822E+00  0.000000000000000E+00
 -0.100000000000000E+01  0.955162973124140E+00  0.000000000000000E+00
 -0.100000000000000E+01  0.100000000000000E+01  0.000000000000000E+00
 -0.955162973124140E+00 -0.100000000000000E+01  0.000000000000000E+00
 -0.955162973124140E+00 -0.955162973124140E+00  0.748306074494947E-02
 -0.955162973124140E+00 -0.848039647510822E+00  0.235687883209692E-01
 -0.955162973124140E+00 -0.741262543272473E+00  0.354967803081312E-01
 -0.955162973124140E+00 -0.635605065171759E+00  0.424396041769931E-01
 -0.955162973124140E+00 -0.529610856542781E+00  0.444288824603532E-01
 -0.955162973124140E+00 -0.423704436434061E+00  0.417661711378440E-01
 -0.955162973124140E+00 -0.317774315082929E+00  0.350834700993541E-01
 -0.955162973124140E+00 -0.211850529508475E+00  0.252233621424689E-01
 -0.955162973124140E+00 -0.105925053478478E+00  0.131705561890716E-01
 -0.955162973124140E+00 -0.790519978293986E-17  0.105803742141303E-15
 -0.955162973124140E+00  0.105925053478478E+00 -0.131705561890714E-01
 -0.955162973124140E+00  0.211850529508475E+00 -0.252233621424686E-01
 -0.955162973124140E+00  0.317774315082929E+00 -0.350834700993538E-01
 -0.955162973124140E+00  0.423704436434061E+00 -0.417661711378436E-01
 -0.955162973124140E+00  0.529610856542781E+00 -0.444288824603528E-01
 -0.955162973124140E+00  0.635605065171759E+00 -0.424396041769928E-01
 -0.955162973124140E+00  0.741262543272473E+00 -0.354967803081311E-01
 -0.955162973124140E+00  0.848039647510822E+00 -0.235687883209691E-01
 -0.955162973124140E+00  0.955162973124140E+00 -0.748306074494944E-02
 -0.955162973124140E+00  0.100000000000000E+01  0.000000000000000E+00
 -0.848039647510822E+00 -0.100000000000000E+01  0.000000000000000E+00
 -0.848039647510822E+00 -0.955162973124140E+00  0.242005924751753E-01
 -0.848039647510822E+00 -0.848039647510822E+00  0.767995841602469E-01
 -0.848039647510822E+00 -0.741262543272473E+00  0.116281683181505E+00
 -0.848039647510822E+00 -0.635605065171759E+00  0.139515087857827E+00
 -0.848039647510822E+00 -0.529610856542781E+00  0.146410081667959E+00
 -0.848039647510822E+00 -0.423704436434061E+00  0.137868925945184E+00
 -0.848039647510822E+00 -0.317774315082929E+00  0.115945085321230E+00
 -0.848039647510822E+00 -0.211850529508475E+00  0.834229957813548E-01
 -0.848039647510822E+00 -0.105925053478478E+00  0.435788656889427E-01
 -0.848039647510822E+00 -0.790519978293986E-17  0.353650196396667E-15
 -0.848039647510822E+00  0.105925053478478E+00 -0.435788656889420E-01
 -0.848039647510822E+00  0.211850529508475E+00 -0.834229957813539E-01
 -0.848039647510822E+00  0.317774315082929E+00 -0.115945085321229E+00
 -0.848039647510822E+00  0.423704436434061E+00 -0.137868925945182E+00
 -0.848039647510822E+00  0.529610856542781E+00 -0.146410081667957E+00
 -0.848039647510822E+00  0.635605065171759E+00 -0.139515087857826E+00
 -0.848039647510822E+00  0.741262543272473E+00 -0.116281683181505E+00
 -0.848039647510822E+00  0.848039647510822E+00 -0.767995841602465E-01
 -0.848039647510822E+00  0.955162973124140E+00 -0.242005924751752E-01
 -0.848039647510822E+00  0.100000000000000E+01  0.000000000000000E+00
 -0.741262543272473E+00 -0.100000000000000E+01  0.000000000000000E+00
 -0.741262543272473E+00 -0.955162973124140E+00  0.385191996474169E-01
 -0.741262543272473E+00 -0.848039647510822E+00  0.122880004357346E+00
 -0.741262543272473E+00 -0.741262543272473E+00  0.187056424621840E+00
 -0.741262543272473E+00 -0.635605065171759E+00  0.225391844467904E+00
 -0.741262543272473E+00 -0.529610856542781E+00  0.237299986825350E+00
 -0.741262543272473E+00 -0.423704436434061E+00  0.223991042065377E+00
 -0.741262543272473E+00 -0.317774315082929E+00  0.188693328840199E+00
 -0.741262543272473E+00 -0.211850529508475E+00  0.135920476701265E+00
 -0.741262543272473E+00 -0.105925053478478E+00  0.710492138389880E-01
 -0.741262543272473E+00 -0.790519978293986E-17  0.627976994765956E-15
 -0.741262543272473E+00  0.105925053478478E+00 -0.710492138389868E-01
 -0.741262543272473E+00  0.211850529508475E+00 -0.135920476701264E+00
 -0.741262543272473E+00  0.317774315082929E+00 -0.188693328840197E+00
 -0.741262543272473E+00  0.423704436434061E+00 -0.223991042065375E+00
 -0.741262543272473E+00  0.529610856542781E+00 -0.237299986825348E+00
 -0.741262543272473E+00  0.635605065171759E+00 -0.225391844467902E+00
 -0.741262543272473E+00  0.741262543272473E+00 -0.187056424621838E+00
 -0.741262543272473E+00  0.848039647510822E+00 -0.122880004357346E+00
 -0.741262543272473E+00  0.955162973124140E+00 -0.385191996474168E-01
 -0.741262543272473E+00  0.100000000000000E+01  0.000000000000000E+00
 -0.635605065171759E+00 -0.100000000000000E+01  0.000000000000000E+00
 -0.635605065171759E+00 -0.955162973124140E+00  0.502155554406545E-01
 -0.635605065171759E+00 -0.848039647510822E+00  0.160739286088517E+00
 -0.635605065171759E+00 -0.741262543272473E+00  0.245715306884627E+00
 -0.635605065171759E+00 -0.635605065171759E+00  0.297175648267498E+00
 -0.635605065171759E+00 -0.529610856542781E+00  0.313830303251364E+00
 -0.635605065171759E+00 -0.423704436434061E+00  0.296927346459925E+00
 -0.635605065171759E+00 -0.317774315082929E+00  0.250570194278959E+00
 -0.635605065171759E+00 -0.211850529508475E+00  0.180705900433252E+00
 -0.635605065171759E+00 -0.105925053478478E+00  0.945248572224750E-01
 -0.635605065171759E+00 -0.790519978293986E-17  0.936997495686584E-15
 -0.635605065171759E+00  0.105925053478478E+00 -0.945248572224731E-01
 -0.635605065171759E+00  0.211850529508475E+00 -0.180705900433250E+00
 -0.635605065171759E+00  0.317774315082929E+00 -0.250570194278957E+00
 -0.635605065171759E+00  0.423704436434061E+00 -0.296927346459923E+00
 -0.635605065171759E+00  0.529610856542781E+00 -0.313830303251361E+00
 -0.635605065171759E+00  0.635605065171759E+00 -0.297175648267495E+00
 -0.635605065171759E+00  0.741262543272473E+00 -0.245715306884625E+00
 -0.635605065171759E+00  0.848039647510822E+00 -0.160739286088516E+00
 -0.635605065171759E+00  0.955162973124140E+00 -0.502155554406543E-01
 -0.635605065171759E+00  0.100000000000000E+01  0.000000000000000E+00
 -0.529610856542781E+00 -0.100000000000000E+01  0.000000000000000E+00
 -0.529610856542781E+00 -0.955162973124140E+00  0.596044039172610E-01
 -0.529610856542781E+00 -0.848039647510822E+00  0.191232886461514E+00
 -0.529610856542781E+00 -0.741262543272473E+00  0.293238192078558E+00
 -0.529610856542781E+00 -0.635605065171759E+00  0.355704777322538E+00
 -0.529610856542781E+00 -0.529610856542781E+00  0.376603785955785E+00
 -0.529610856542781E+00 -0.423704436434061E+00  0.357055356724058E+00
 -0.529610856542781E+00 -0.317774315082929E+00  0.301781870287320E+00
 -0.529610856542781E+00 -0.211850529508475E+00  0.217875387253099E+00
 -0.529610856542781E+00 -0.105925053478478E+00  0.114040636599110E+00
 -0.529610856542781E+00 -0.790519978293986E-17  0.123772260176463E-14
 -0.529610856542781E+00  0.105925053478478E+00 -0.114040636599108E+00
 -0.529610856542781E+00  0.211850529508475E+00 -0.217875387253096E+00
 -0.529610856542781E+00  0.317774315082929E+00 -0.301781870287317E+00
 -0.529610856542781E+00  0.423704436434061E+00 -0.357055356724055E+00
 -0.529610856542781E+00  0.529610856542781E+00 -0.376603785955781E+00
 -0.529610856542781E+00  0.635605065171759E+00 -0.355704777322534E+00
 -0.529610856542781E+00  0.741262543272473E+00 -0.293238192078556E+00
 -0.529610856542781E+00  0.848039647510822E+00 -0.191232886461512E+00
 -0.529610856542781E+00  0.955162973124140E+00 -0.596044039172607E-01
 -0.529610856542781E+00  0.100000000000000E+01  0.000000000000000E+00
 -0.423704436434061E+00 -0.100000000000000E+01  0.000000000000000E+00
 -0.423704436434061E+00 -0.955162973124140E+00  0.668614176954986E-01
 -0.423704436434061E+00 -0.848039647510822E+00  0.214853049637640E+00
 -0.423704436434061E+00 -0.741262543272473E+00  0.330191518874042E+00
 -0.423704436434061E+00 -0.635605065171759E+00  0.401424426447889E+00
 -0.423704436434061E+00 -0.529610856542781E+00  0.425862145171826E+00
 -0.423704436434061E+00 -0.423704436434061E+00  0.404428037906366E+00
 -0.423704436434061E+00 -0.317774315082929E+00  0.342261082346594E+00
 -0.423704436434061E+00 -0.211850529508475E+00  0.247324649259630E+00
 -0.423704436434061E+00 -0.105925053478478E+00  0.129524956397281E+00
 -0.423704436434061E+00 -0.790519978293986E-17  0.146997433684532E-14
 -0.423704436434061E+00  0.105925053478478E+00 -0.129524956397278E+00
 -0.423704436434061E+00  0.211850529508475E+00 -0.247324649259626E+00
 -0.423704436434061E+00  0.317774315082929E+00 -0.342261082346590E+00
 -0.423704436434061E+00  0.423704436434061E+00 -0.404428037906362E+00
 -0.423704436434061E+00  0.529610856542781E+00 -0.425862145171821E+00
 -0.423704436434061E+00  0.635605065171759E+00 -0.401424426447885E+00
 -0.423704436434061E+00  0.741262543272473E+00 -0.330191518874039E+00
 -0.423704436434061E+00  0.848039647510822E+00 -0.214853049637639E+00
 -0.423704436434061E+00  0.955162973124140E+00 -0.668614176954981E-01
 -0.423704436434061E+00  0.100000000000000E+01  0.000000000000000E+00
 -0.317774315082929E+00 -0.100000000000000E+01  0.000000000000000E+00
 -0.317774315082929E+00 -0.955162973124140E+00  0.722286455806033E-01
 -0.317774315082929E+00 -0.848039647510822E+00  0.232346313553824E+00
 -0.317774315082929E+00 -0.741262543272473E+00  0.357629027838371E+00
 -0.317774315082929E+00 -0.635605065171759E+00  0.435477587207796E+00
 -0.317774315082929E+00 -0.529610856542781E+00  0.462671091134587E+00
 -0.317774315082929E+00 -0.423704436434061E+00  0.439934306205170E+00
 -0.317774315082929E+00 -0.317774315082929E+00  0.372676427456505E+00
 -0.317774315082929E+00 -0.211850529508475E+00  0.269493224700212E+00
 -0.317774315082929E+00 -0.105925053478478E+00  0.141194293872182E+00
 -0.317774315082929E+00 -0.790519978293986E-17  0.163000112345988E-14
 -0.317774315082929E+00  0.105925053478478E+00 -0.141194293872179E+00
 -0.317774315082929E+00  0.211850529508475E+00 -0.269493224700208E+00
 -0.317774315082929E+00  0.317774315082929E+00 -0.372676427456500E+00
 -0.317774315082929E+00  0.423704436434061E+00 -0.439934306205165E+00
 -0.317774315082929E+00  0.529610856542781E+00 -0.462671091134581E+00
 -0.317774315082929E+00  0.635605065171759E+00 -0.435477587207791E+00
 -0.317774315082929E+00  0.741262543272473E+00 -0.357629027838367E+00
 -0.317774315082929E+00  0.848039647510822E+00 -0.232346313553822E+00
 -0.317774315082929E+00  0.955162973124140E+00 -0.722286455806027E-01
 -0.317774315082929E+00  0.100000000000000E+01  0.000000000000000E+00
 -0.211850529508475E+00 -0.100000000000000E+01  0.000000000000000E+00
 -0.211850529508475E+00 -0.955162973124140E+00  0.759070421356255E-01
 -0.211850529508475E+00 -0.848039647510822E+00  0.244345645210754E+00
 -0.211850529508475E+00 -0.741262543272473E+00  0.376480299930979E+00
 -0.211850529508475E+00 -0.635605065171759E+00  0.458922846954034E+00
 -0.211850529508475E+00 -0.529610856542781E+00  0.488070095960253E+00
 -0.211850529508475E+00 -0.423704436434061E+00  0.464485848882293E+00
 -0.211850529508475E+00 -0.317774315082929E+00  0.393745204164272E+00
 -0.211850529508475E+00 -0.211850529508475E+00  0.284870017714922E+00
 -0.211850529508475E+00 -0.105925053478478E+00  0.149295193506984E+00
 -0.211850529508475E+00 -0.790519978293986E-17  0.175105797470352E-14
 -0.211850529508475E+00  0.105925053478478E+00 -0.149295193506981E+00
 -0.211850529508475E+00  0.211850529508475E+00 -0.284870017714918E+00
 -0.211850529508475E+00  0.317774315082929E+00 -0.393745204164267E+00
 -0.211850529508475E+00  0.423704436434061E+00 -0.464485848882288E+00
 -0.211850529508475E+00  0.529610856542781E+00 -0.488070095960247E+00
 -0.211850529508475E+00  0.635605065171759E+00 -0.458922846954029E+00
 -0.211850529508475E+00  0.741262543272473E+00 -0.376480299930975E+00
 -0.211850529508475E+00  0.848039647510822E+00 -0.244345645210752E+00
 -0.211850529508475E+00  0.955162973124140E+00 -0.759070421356249E-01
 -0.211850529508475E+00  0.100000000000000E+01  0.000000000000000E+00
 -0.105925053478478E+00 -0.100000000000000E+01  0.000000000000000E+00
 -0.105925053478478E+00 -0.955162973124140E+00  0.780507194297142E-01
 -0.105925053478478E+00 -0.848039647510822E+00  0.251342152458290E+00
 -0.105925053478478E+00 -0.741262543272473E+00  0.387482725833280E+00
 -0.105925053478478E+00 -0.635605065171759E+00  0.472623766623972E+00
 -0.105925053478478E+00 -0.529610856542781E+00  0.502933138453757E+00
 -0.105925053478478E+00 -0.423704436434061E+00  0.478871899947661E+00
 -0.105925053478478E+00 -0.317774315082929E+00  0.406104520166112E+00
 -0.105925053478478E+00 -0.211850529508475E+00  0.293898095387450E+00
 -0.105925053478478E+00 -0.105925053478478E+00  0.154053973948724E+00
 -0.105925053478478E+00 -0.790519978293986E-17  0.176427769216845E-14
 -0.105925053478478E+00  0.105925053478478E+00 -0.154053973948720E+00
 -0.105925053478478E+00  0.211850529508475E+00 -0.293898095387446E+00
 -0.105925053478478E+00  0.317774315082929E+00 -0.406104520166107E+00
 -0.105925053478478E+00  0.423704436434061E+00 -0.478871899947655E+00
 -0.105925053478478E+00  0.529610856542781E+00 -0.502933138453751E+00
 -0.105925053478478E+00  0.635605065171759E+00 -0.472623766623967E+00
 -0.105925053478478E+00  0.741262543272473E+00 -0.387482725833276E+00
 -0.105925053478478E+00  0.848039647510822E+00 -0.251342152458288E+00
 -0.105925053478478E+00  0.955162973124140E+00 -0.780507194297136E-01
 -0.105925053478478E+00  0.100000000000000E+01  0.000000000000000E+00
 -0.790519978293986E-17 -0.100000000000000E+01  0.000000000000000E+00
 -0.790519978293986E-17 -0.955162973124140E+00  0.787545905922489E-01
 -0.790519978293986E-17 -0.848039647510822E+00  0.253639988252037E+00
 -0.790519978293986E-17 -0.741262543272473E+00  0.391097858155269E+00
 -0.790519978293986E-17 -0.635605065171759E+00  0.477128233383232E+00
 -0.790519978293986E-17 -0.529610856542781E+00  0.507822874402832E+00
 -0.790519978293986E-17 -0.423704436434061E+00  0.483607709287086E+00
 -0.790519978293986E-17 -0.317774315082929E+00  0.410175375759736E+00
 -0.790519978293986E-17 -0.211850529508475E+00  0.296872973633271E+00
 -0.790519978293986E-17 -0.105925053478478E+00  0.155622470907194E+00
 -0.790519978293986E-17 -0.790519978293986E-17  0.167740391414326E-14
 -0.790519978293986E-17  0.105925053478478E+00 -0.155622470907191E+00
 -0.790519978293986E-17  0.211850529508475E+00 -0.296872973633268E+00
 -0.790519978293986E-17  0.317774315082929E+00 -0.410175375759731E+00
 -0.790519978293986E-17  0.423704436434061E+00 -0.483607709287080E+00
 -0.790519978293986E-17  0.529610856542781E+00 -0.507822874402826E+00
 -0.790519978293986E-17  0.635605065171759E+00 -0.477128233383227E+00
 -0.790519978293986E-17  0.741262543272473E+00 -0.391097858155266E+00
 -0.790519978293986E-17  0.848039647510822E+00 -0.253639988252035E+00
 -0.790519978293986E-17  0.955162973124140E+00 -0.787545905922484E-01
 -0.790519978293986E-17  0.100000000000000E+01  0.000000000000000E+00
  0.105925053478478E+00 -0.100000000000000E+01  0.000000000000000E+00
  0.105925053478478E+00 -0.955162973124140E+00  0.780507194297141E-01
  0.105925053478478E+00 -0.848039647510822E+00  0.251342152458290E+00
  0.105925053478478E+00 -0.741262543272473E+00  0.387482725833280E+00
  0.105925053478478E+00 -0.635605065171759E+00  0.472623766623972E+00
  0.105925053478478E+00 -0.529610856542781E+00  0.502933138453758E+00
  0.105925053478478E+00 -0.423704436434061E+00  0.478871899947661E+00
  0.105925053478478E+00 -0.317774315082929E+00  0.406104520166112E+00
  0.105925053478478E+00 -0.211850529508475E+00  0.293898095387449E+00
  0.105925053478478E+00 -0.105925053478478E+00  0.154053973948723E+00
  0.105925053478478E+00 -0.790519978293986E-17  0.149307129514186E-14
  0.105925053478478E+00  0.105925053478478E+00 -0.154053973948720E+00
  0.105925053478478E+00  0.211850529508475E+00 -0.293898095387446E+00
  0.105925053478478E+00  0.317774315082929E+00 -0.406104520166108E+00
  0.105925053478478E+00  0.423704436434061E+00 -0.478871899947656E+00
  0.105925053478478E+00  0.529610856542781E+00 -0.502933138453752E+00
  0.105925053478478E+00  0.635605065171759E+00 -0.472623766623968E+00
  0.105925053478478E+00  0.741262543272473E+00 -0.387482725833276E+00
  0.105925053478478E+00  0.848039647510822E+00 -0.251342152458289E+00
  0.105925053478478E+00  0.955162973124140E+00 -0.780507194297137E-01
  0.105925053478478E+00  0.100000000000000E+01  0.000000000000000E+00
  0.211850529508475E+00 -0.100000000000000E+01  0.000000000000000E+00
  0.211850529508475E+00 -0.955162973124140E+00  0.759070421356253E-01
  0.211850529508475E+00 -0.848039647510822E+00  0.244345645210754E+00
  0.211850529508475E+00 -0.741262543272473E+00  0.376480299930979E+00
  0.211850529508475E+00 -0.635605065171759E+00  0.458922846954034E+00
  0.211850529508475E+00 -0.529610856542781E+00  0.488070095960252E+00
  0.211850529508475E+00 -0.423704436434061E+00  0.464485848882293E+00
  0.211850529508475E+00 -0.317774315082929E+00  0.393745204164271E+00
  0.211850529508475E+00 -0.211850529508475E+00  0.284870017714921E+00
  0.211850529508475E+00 -0.105925053478478E+00  0.149295193506984E+00
  0.211850529508475E+00 -0.790519978293986E-17  0.126509608062124E-14
  0.211850529508475E+00  0.105925053478478E+00 -0.149295193506981E+00
  0.211850529508475E+00  0.211850529508475E+00 -0.284870017714918E+00
  0.211850529508475E+00  0.317774315082929E+00 -0.393745204164268E+00
  0.211850529508475E+00  0.423704436434061E+00 -0.464485848882289E+00
  0.211850529508475E+00  0.529610856542781E+00 -0.488070095960248E+00
  0.211850529508475E+00  0.635605065171759E+00 -0.458922846954030E+00
  0.211850529508475E+00  0.741262543272473E+00 -0.376480299930976E+00
  0.211850529508475E+00  0.848039647510822E+00 -0.244345645210752E+00
  0.211850529508475E+00  0.955162973124140E+00 -0.759070421356249E-01
  0.211850529508475E+00  0.100000000000000E+01  0.000000000000000E+00
  0.317774315082929E+00 -0.100000000000000E+01  0.000000000000000E+00
  0.317774315082929E+00 -0.955162973124140E+00  0.722286455806031E-01
  0.317774315082929E+00 -0.848039647510822E+00  0.232346313553824E+00
  0.317774315082929E+00 -0.741262543272473E+00  0.357629027838370E+00
  0.317774315082929E+00 -0.635605065171759E+00  0.435477587207794E+00
  0.317774315082929E+00 -0.529610856542781E+00  0.462671091134585E+00
  0.317774315082929E+00 -0.423704436434061E+00  0.439934306205169E+00
  0.317774315082929E+00 -0.317774315082929E+00  0.372676427456503E+00
  0.317774315082929E+00 -0.211850529508475E+00  0.269493224700210E+00
  0.317774315082929E+00 -0.105925053478478E+00  0.141194293872181E+00
  0.317774315082929E+00 -0.790519978293986E-17  0.985850045058769E-15
  0.317774315082929E+00  0.105925053478478E+00 -0.141194293872179E+00
  0.317774315082929E+00  0.211850529508475E+00 -0.269493224700208E+00
  0.317774315082929E+00  0.317774315082929E+00 -0.372676427456501E+00
  0.317774315082929E+00  0.423704436434061E+00 -0.439934306205166E+00
  0.317774315082929E+00  0.529610856542781E+00 -0.462671091134582E+00
  0.317774315082929E+00  0.635605065171759E+00 -0.435477587207792E+00
  0.317774315082929E+00  0.741262543272473E+00 -0.357629027838368E+00
  0.317774315082929E+00  0.848039647510822E+00 -0.232346313553823E+00
  0.317774315082929E+00  0.955162973124140E+00 -0.722286455806028E-01
  0.317774315082929E+00  0.100000000000000E+01  0.000000000000000E+00
  0.423704436434061E+00 -0.100000000000000E+01  0.000000000000000E+00
  0.423704436434061E+00 -0.955162973124140E+00  0.668614176954983E-01
  0.423704436434061E+00 -0.848039647510822E+00  0.214853049637639E+00
  0.423704436434061E+00 -0.741262543272473E+00  0.330191518874041E+00
  0.423704436434061E+00 -0.635605065171759E+00  0.401424426447887E+00
  0.423704436434061E+00 -0.529610856542781E+00  0.425862145171823E+00
  0.423704436434061E+00 -0.423704436434061E+00  0.404428037906364E+00
  0.423704436434061E+00 -0.317774315082929E+00  0.342261082346592E+00
  0.423704436434061E+00 -0.211850529508475E+00  0.247324649259628E+00
  0.423704436434061E+00 -0.105925053478478E+00  0.129524956397280E+00
  0.423704436434061E+00 -0.790519978293986E-17  0.668117522683468E-15
  0.423704436434061E+00  0.105925053478478E+00 -0.129524956397279E+00
  0.423704436434061E+00  0.211850529508475E+00 -0.247324649259626E+00
  0.423704436434061E+00  0.317774315082929E+00 -0.342261082346590E+00
  0.423704436434061E+00  0.423704436434061E+00 -0.404428037906362E+00
  0.423704436434061E+00  0.529610856542781E+00 -0.425862145171822E+00
  0.423704436434061E+00  0.635605065171759E+00 -0.401424426447885E+00
  0.423704436434061E+00  0.741262543272473E+00 -0.330191518874039E+00
  0.423704436434061E+00  0.848039647510822E+00 -0.214853049637638E+00
  0.423704436434061E+00  0.955162973124140E+00 -0.668614176954980E-01
  0.423704436434061E+00  0.100000000000000E+01  0.000000000000000E+00
  0.529610856542781E+00 -0.100000000000000E+01  0.000000000000000E+00
  0.529610856542781E+00 -0.955162973124140E+00  0.596044039172607E-01
  0.529610856542781E+00 -0.848039647510822E+00  0.191232886461513E+00
  0.529610856542781E+00 -0.741262543272473E+00  0.293238192078557E+00
  0.529610856542781E+00 -0.635605065171759E+00  0.355704777322535E+00
  0.529610856542781E+00 -0.529610856542781E+00  0.376603785955782E+00
  0.529610856542781E+00 -0.423704436434061E+00  0.357055356724056E+00
  0.529610856542781E+00 -0.317774315082929E+00  0.301781870287318E+00
  0.529610856542781E+00 -0.211850529508475E+00  0.217875387253097E+00
  0.529610856542781E+00 -0.105925053478478E+00  0.114040636599109E+00
  0.529610856542781E+00 -0.790519978293986E-17  0.429874726761726E-15
  0.529610856542781E+00  0.105925053478478E+00 -0.114040636599108E+00
  0.529610856542781E+00  0.211850529508475E+00 -0.217875387253096E+00
  0.529610856542781E+00  0.317774315082929E+00 -0.301781870287317E+00
  0.529610856542781E+00  0.423704436434061E+00 -0.357055356724054E+00
  0.529610856542781E+00  0.529610856542781E+00 -0.376603785955781E+00
  0.529610856542781E+00  0.635605065171759E+00 -0.355704777322534E+00
  0.529610856542781E+00  0.741262543272473E+00 -0.293238192078555E+00
  0.529610856542781E+00  0.848039647510822E+00 -0.191232886461512E+00
  0.529610856542781E+00  0.955162973124140E+00 -0.596044039172606E-01
  0.529610856542781E+00  0.100000000000000E+01  0.000000000000000E+00
  0.635605065171759E+00 -0.100000000000000E+01  0.000000000000000E+00
  0.635605065171759E+00 -0.955162973124140E+00  0.502155554406542E-01
  0.635605065171759E+00 -0.848039647510822E+00  0.160739286088516E+00
  0.635605065171759E+00 -0.741262543272473E+00  0.245715306884626E+00
  0.635605065171759E+00 -0.635605065171759E+00  0.297175648267495E+00
  0.635605065171759E+00 -0.529610856542781E+00  0.313830303251361E+00
  0.635605065171759E+00 -0.423704436434061E+00  0.296927346459923E+00
  0.635605065171759E+00 -0.317774315082929E+00  0.250570194278957E+00
  0.635605065171759E+00 -0.211850529508475E+00  0.180705900433251E+00
  0.635605065171759E+00 -0.105925053478478E+00  0.945248572224740E-01
  0.635605065171759E+00 -0.790519978293986E-17  0.275779898578730E-15
  0.635605065171759E+00  0.105925053478478E+00 -0.945248572224734E-01
  0.635605065171759E+00  0.211850529508475E+00 -0.180705900433250E+00
  0.635605065171759E+00  0.317774315082929E+00 -0.250570194278956E+00
  0.635605065171759E+00  0.423704436434061E+00 -0.296927346459922E+00
  0.635605065171759E+00  0.529610856542781E+00 -0.313830303251360E+00
  0.635605065171759E+00  0.635605065171759E+00 -0.297175648267494E+00
  0.635605065171759E+00  0.741262543272473E+00 -0.245715306884624E+00
  0.635605065171759E+00  0.848039647510822E+00 -0.160739286088516E+00
  0.635605065171759E+00  0.955162973124140E+00 -0.502155554406541E-01
  0.635605065171759E+00  0.100000000000000E+01  0.000000000000000E+00
  0.741262543272473E+00 -0.100000000000000E+01  0.000000000000000E+00
  0.741262543272473E+00 -0.955162973124140E+00  0.385191996474167E-01
  0.741262543272473E+00 -0.848039647510822E+00  0.122880004357345E+00
  0.741262543272473E+00 -0.741262543272473E+00  0.187056424621838E+00
  0.741262543272473E+00 -0.635605065171759E+00  0.225391844467902E+00
  0.741262543272473E+00 -0.529610856542781E+00  0.237299986825348E+00
  0.741262543272473E+00 -0.423704436434061E+00  0.223991042065375E+00
  0.741262543272473E+00 -0.317774315082929E+00  0.188693328840197E+00
  0.741262543272473E+00 -0.211850529508475E+00  0.135920476701264E+00
  0.741262543272473E+00 -0.105925053478478E+00  0.710492138389873E-01
  0.741262543272473E+00 -0.790519978293986E-17  0.204546060014382E-15
  0.741262543272473E+00  0.105925053478478E+00 -0.710492138389870E-01
  0.741262543272473E+00  0.211850529508475E+00 -0.135920476701263E+00
  0.741262543272473E+00  0.317774315082929E+00 -0.188693328840197E+00
  0.741262543272473E+00  0.423704436434061E+00 -0.223991042065374E+00
  0.741262543272473E+00  0.529610856542781E+00 -0.237299986825347E+00
  0.741262543272473E+00  0.635605065171759E+00 -0.225391844467901E+00
  0.741262543272473E+00  0.741262543272473E+00 -0.187056424621837E+00
  0.741262543272473E+00  0.848039647510822E+00 -0.122880004357345E+00
  0.741262543272473E+00  0.955162973124140E+00 -0.385191996474166E-01
  0.741262543272473E+00  0.100000000000000E+01  0.000000000000000E+00
  0.848039647510822E+00 -0.100000000000000E+01  0.000000000000000E+00
  0.848039647510822E+00 -0.955162973124140E+00  0.242005924751751E-01
  0.848039647510822E+00 -0.848039647510822E+00  0.767995841602464E-01
  0.848039647510822E+00 -0.741262543272473E+00  0.116281683181504E+00
  0.848039647510822E+00 -0.635605065171759E+00  0.139515087857826E+00
  0.848039647510822E+00 -0.529610856542781E+00  0.146410081667957E+00
  0.848039647510822E+00 -0.423704436434061E+00  0.137868925945182E+00
  0.848039647510822E+00 -0.317774315082929E+00  0.115945085321229E+00
  0.848039647510822E+00 -0.211850529508475E+00  0.834229957813541E-01
  0.848039647510822E+00 -0.105925053478478E+00  0.435788656889423E-01
  0.848039647510822E+00 -0.790519978293986E-17  0.125595857879729E-15
  0.848039647510822E+00  0.105925053478478E+00 -0.435788656889421E-01
  0.848039647510822E+00  0.211850529508475E+00 -0.834229957813538E-01
  0.848039647510822E+00  0.317774315082929E+00 -0.115945085321228E+00
  0.848039647510822E+00  0.423704436434061E+00 -0.137868925945182E+00
  0.848039647510822E+00  0.529610856542781E+00 -0.146410081667957E+00
  0.848039647510822E+00  0.635605065171759E+00 -0.139515087857825E+00
  0.848039647510822E+00  0.741262543272473E+00 -0.116281683181504E+00
  0.848039647510822E+00  0.848039647510822E+00 -0.767995841602461E-01
  0.848039647510822E+00  0.955162973124140E+00 -0.242005924751750E-01
  0.848039647510822E+00  0.100000000000000E+01  0.000000000000000E+00
  0.955162973124140E+00 -0.100000000000000E+01  0.000000000000000E+00
  0.955162973124140E+00 -0.955162973124140E+00  0.748306074494943E-02
  0.955162973124140E+00 -0.848039647510822E+00  0.235687883209691E-01
  0.955162973124140E+00 -0.741262543272473E+00  0.354967803081310E-01
  0.955162973124140E+00 -0.635605065171759E+00  0.424396041769928E-01
  0.955162973124140E+00 -0.529610856542781E+00  0.444288824603529E-01
  0.955162973124140E+00 -0.423704436434061E+00  0.417661711378436E-01
  0.955162973124140E+00 -0.317774315082929E+00  0.350834700993538E-01
  0.955162973124140E+00 -0.211850529508475E+00  0.252233621424687E-01
  0.955162973124140E+00 -0.105925053478478E+00  0.131705561890715E-01
  0.955162973124140E+00 -0.790519978293986E-17  0.395581001423376E-16
  0.955162973124140E+00  0.105925053478478E+00 -0.131705561890714E-01
  0.955162973124140E+00  0.211850529508475E+00 -0.252233621424687E-01
  0.955162973124140E+00  0.317774315082929E+00 -0.350834700993538E-01
  0.955162973124140E+00  0.423704436434061E+00 -0.417661711378435E-01
  0.955162973124140E+00  0.529610856542781E+00 -0.444288824603527E-01
  0.955162973124140E+00  0.635605065171759E+00 -0.424396041769926E-01
  0.955162973124140E+00  0.741262543272473E+00 -0.354967803081309E-01
  0.955162973124140E+00  0.848039647510822E+00 -0.235687883209690E-01
  0.955162973124140E+00  0.955162973124140E+00 -0.748306074494941E-02
  0.955162973124140E+00  0.100000000000000E+01  0.000000000000000E+00
  0.100000000000000E+01 -0.100000000000000E+01  0.000000000000000E+00
  0.100000000000000E+01 -0.955162973124140E+00  0.000000000000000E+00
  0.100000000000000E+01 -0.848039647510822E+00  0.000000000000000E+00
  0.100000000000000E+01 -0.741262543272473E+00  0.000000000000000E+00
  0.100000000000000E+01 -0.635605065171759E+00  0.000000000000000E+00
  0.100000000000000E+01 -0.529610856542781E+00  0.000000000000000E+00
  0.100000000000000E+01 -0.423704436434061E+00  0.000000000000000E+00