 VARIABLES =  $x$  (a)
 ZONE I=         441 ,DATAPACKING=POINT
 -0.100000000000000E+01 -0.100000000000000E+01 -0.100000000000000E+03
 -0.100000000000000E+01 -0.955162973124140E+00 -0.955162973124140E+02
 -0.100000000000000E+01 -0.848039647510822E+00 -0.848039647510822E+02
 -0.100000000000000E+01 -0.741262543272473E+00 -0.741262543272473E+02
 -0.100000000000000E+01 -0.635605065171759E+00 -0.635605065171759E+02
 -0.100000000000000E+01 -0.529610856542781E+00 -0.529610856542781E+02
 -0.100000000000000E+01 -0.423704436434061E+00 -0.423704436434061E+02
 -0.100000000000000E+01 -0.317774315082929E+00 -0.317774315082929E+02
 -0.100000000000000E+01 -0.211850529508475E+00 -0.211850529508475E+02
 -0.100000000000000E+01 -0.105925053478478E+00 -0.105925053478478E+02
 -0.100000000000000E+01 -0.790519978293986E-17 -0.790519978293986E-15
 -0.100000000000000E+01  0.105925053478478E+00  0.105925053478478E+02
 -0.100000000000000E+01  0.211850529508475E+00  0.211850529508475E+02
 -0.100000000000000E+01  0.317774315082929E+00  0.317774315082929E+02
 -0.100000000000000E+01  0.423704436434061E+00  0.423704436434061E+02
 -0.100000000000000E+01  0.529610856542781E+00  0.529610856542781E+02
 -0.100000000000000E+01  0.635605065171759E+00  0.635605065171759E+02
 -0.100000000000000E+01  0.741262543272473E+00  0.741262543272473E+02
 -0.100000000000000E+01  0.848039647510822E+00  0.848039647510822E+02
 -0.100000000000000E+01  0.955162973124140E+00  0.955162973124140E+02
 -0.100000000000000E+01  0.100000000000000E+01  0.100000000000000E+03
 -0.955162973124140E+00 -0.100000000000000E+01 -0.100000000000000E+03
 -0.955162973124140E+00 -0.955162973124140E+00 -0.955162973124140E+02
 -0.955162973124140E+00 -0.848039647510822E+00 -0.848039647510822E+02
 -0.955162973124140E+00 -0.741262543272473E+00 -0.741262543272473E+02
 -0.955162973124140E+00 -0.635605065171759E+00 -0.635605065171759E+02
 -0.955162973124140E+00 -0.529610856542781E+00 -0.529610856542781E+02
 -0.955162973124140E+00 -0.423704436434061E+00 -0.423704436434061E+02
 -0.955162973124140E+00 -0.317774315082929E+00 -0.317774315082929E+02
 -0.955162973124140E+00 -0.211850529508475E+00 -0.211850529508475E+02
 -0.955162973124140E+00 -0.105925053478478E+00 -0.105925053478478E+02
 -0.955162973124140E+00 -0.790519978293986E-17 -0.790519978293986E-15
 -0.955162973124140E+00  0.105925053478478E+00  0.105925053478478E+02
 -0.955162973124140E+00  0.211850529508475E+00  0.211850529508475E+02
 -0.955162973124140E+00  0.317774315082929E+00  0.317774315082929E+02
 -0.955162973124140E+00  0.423704436434061E+00  0.423704436434061E+02
 -0.955162973124140E+00  0.529610856542781E+00  0.529610856542781E+02
 -0.955162973124140E+00  0.635605065171759E+00  0.635605065171759E+02
 -0.955162973124140E+00  0.741262543272473E+00  0.741262543272473E+02
 -0.955162973124140E+00  0.848039647510822E+00  0.848039647510822E+02
 -0.955162973124140E+00  0.955162973124140E+00  0.955162973124140E+02
 -0.955162973124140E+00  0.100000000000000E+01  0.100000000000000E+03
 -0.848039647510822E+00 -0.100000000000000E+01 -0.100000000000000E+03
 -0.848039647510822E+00 -0.955162973124140E+00 -0.955162973124140E+02
 -0.848039647510822E+00 -0.848039647510822E+00 -0.848039647510822E+02
 -0.848039647510822E+00 -0.741262543272473E+00 -0.741262543272473E+02
 -0.848039647510822E+00 -0.635605065171759E+00 -0.635605065171759E+02
 -0.848039647510822E+00 -0.529610856542781E+00 -0.529610856542781E+02
 -0.848039647510822E+00 -0.423704436434061E+00 -0.423704436434061E+02
 -0.848039647510822E+00 -0.317774315082929E+00 -0.317774315082929E+02
 -0.848039647510822E+00 -0.211850529508475E+00 -0.211850529508475E+02
 -0.848039647510822E+00 -0.105925053478478E+00 -0.105925053478478E+02
 -0.848039647510822E+00 -0.790519978293986E-17 -0.790519978293986E-15
 -0.848039647510822E+00  0.105925053478478E+00  0.105925053478478E+02
 -0.848039647510822E+00  0.211850529508475E+00  0.211850529508475E+02
 -0.848039647510822E+00  0.317774315082929E+00  0.317774315082929E+02
 -0.848039647510822E+00  0.423704436434061E+00  0.423704436434061E+02
 -0.848039647510822E+00  0.529610856542781E+00  0.529610856542781E+02
 -0.848039647510822E+00  0.635605065171759E+00  0.635605065171759E+02
 -0.848039647510822E+00  0.741262543272473E+00  0.741262543272473E+02
 -0.848039647510822E+00  0.848039647510822E+00  0.848039647510822E+02
 -0.848039647510822E+00  0.955162973124140E+00  0.955162973124140E+02
 -0.848039647510822E+00  0.100000000000000E+01  0.100000000000000E+03
 -0.741262543272473E+00 -0.100000000000000E+01 -0.100000000000000E+03
 -0.741262543272473E+00 -0.955162973124140E+00 -0.955162973124140E+02
 -0.741262543272473E+00 -0.848039647510822E+00 -0.848039647510822E+02
 -0.741262543272473E+00 -0.741262543272473E+00 -0.741262543272473E+02
 -0.741262543272473E+00 -0.635605065171759E+00 -0.635605065171759E+02
 -0.741262543272473E+00 -0.529610856542781E+00 -0.529610856542781E+02
 -0.741262543272473E+00 -0.423704436434061E+00 -0.423704436434061E+02
 -0.741262543272473E+00 -0.317774315082929E+00 -0.317774315082929E+02
 -0.741262543272473E+00 -0.211850529508475E+00 -0.211850529508475E+02
 -0.741262543272473E+00 -0.105925053478478E+00 -0.105925053478478E+02
 -0.741262543272473E+00 -0.790519978293986E-17 -0.790519978293986E-15
 -0.741262543272473E+00  0.105925053478478E+00  0.105925053478478E+02
 -0.741262543272473E+00  0.211850529508475E+00  0.211850529508475E+02
 -0.741262543272473E+00  0.317774315082929E+00  0.317774315082929E+02
 -0.741262543272473E+00  0.423704436434061E+00  0.423704436434061E+02
 -0.741262543272473E+00  0.529610856542781E+00  0.529610856542781E+02
 -0.741262543272473E+00  0.635605065171759E+00  0.635605065171759E+02
 -0.741262543272473E+00  0.741262543272473E+00  0.741262543272473E+02
 -0.741262543272473E+00  0.848039647510822E+00  0.848039647510822E+02
 -0.741262543272473E+00  0.955162973124140E+00  0.955162973124140E+02
 -0.741262543272473E+00  0.100000000000000E+01  0.100000000000000E+03
 -0.635605065171759E+00 -0.100000000000000E+01 -0.100000000000000E+03
 -0.635605065171759E+00 -0.955162973124140E+00 -0.955162973124140E+02
 -0.635605065171759E+00 -0.848039647510822E+00 -0.848039647510822E+02
 -0.635605065171759E+00 -0.741262543272473E+00 -0.741262543272473E+02
 -0.635605065171759E+00 -0.635605065171759E+00 -0.635605065171759E+02
 -0.635605065171759E+00 -0.529610856542781E+00 -0.529610856542781E+02
 -0.635605065171759E+00 -0.423704436434061E+00 -0.423704436434061E+02
 -0.635605065171759E+00 -0.317774315082929E+00 -0.317774315082929E+02
 -0.635605065171759E+00 -0.211850529508475E+00 -0.211850529508475E+02
 -0.635605065171759E+00 -0.105925053478478E+00 -0.105925053478478E+02
 -0.635605065171759E+00 -0.790519978293986E-17 -0.790519978293986E-15
 -0.635605065171759E+00  0.105925053478478E+00  0.105925053478478E+02
 -0.635605065171759E+00  0.211850529508475E+00  0.211850529508475E+02
 -0.635605065171759E+00  0.317774315082929E+00  0.317774315082929E+02
 -0.635605065171759E+00  0.423704436434061E+00  0.423704436434061E+02
 -0.635605065171759E+00  0.529610856542781E+00  0.529610856542781E+02
 -0.635605065171759E+00  0.635605065171759E+00  0.635605065171759E+02
 -0.635605065171759E+00  0.741262543272473E+00  0.741262543272473E+02
 -0.635605065171759E+00  0.848039647510822E+00  0.848039647510822E+02
 -0.635605065171759E+00  0.955162973124140E+00  0.955162973124140E+02
 -0.635605065171759E+00  0.100000000000000E+01  0.100000000000000E+03
 -0.529610856542781E+00 -0.100000000000000E+01 -0.100000000000000E+03
 -0.529610856542781E+00 -0.955162973124140E+00 -0.955162973124140E+02
 -0.529610856542781E+00 -0.848039647510822E+00 -0.848039647510822E+02
 -0.529610856542781E+00 -0.741262543272473E+00 -0.741262543272473E+02
 -0.529610856542781E+00 -0.635605065171759E+00 -0.635605065171759E+02
 -0.529610856542781E+00 -0.529610856542781E+00 -0.529610856542781E+02
 -0.529610856542781E+00 -0.423704436434061E+00 -0.423704436434061E+02
 -0.529610856542781E+00 -0.317774315082929E+00 -0.317774315082929E+02
 -0.529610856542781E+00 -0.211850529508475E+00 -0.211850529508475E+02
 -0.529610856542781E+00 -0.105925053478478E+00 -0.105925053478478E+02
 -0.529610856542781E+00 -0.790519978293986E-17 -0.790519978293986E-15
 -0.529610856542781E+00  0.105925053478478E+00  0.105925053478478E+02
 -0.529610856542781E+00  0.211850529508475E+00  0.211850529508475E+02
 -0.529610856542781E+00  0.317774315082929E+00  0.317774315082929E+02
 -0.529610856542781E+00  0.423704436434061E+00  0.423704436434061E+02
 -0.529610856542781E+00  0.529610856542781E+00  0.529610856542781E+02
 -0.529610856542781E+00  0.635605065171759E+00  0.635605065171759E+02
 -0.529610856542781E+00  0.741262543272473E+00  0.741262543272473E+02
 -0.529610856542781E+00  0.848039647510822E+00  0.848039647510822E+02
 -0.529610856542781E+00  0.955162973124140E+00  0.955162973124140E+02
 -0.529610856542781E+00  0.100000000000000E+01  0.100000000000000E+03
 -0.423704436434061E+00 -0.100000000000000E+01 -0.100000000000000E+03
 -0.423704436434061E+00 -0.955162973124140E+00 -0.955162973124140E+02
 -0.423704436434061E+00 -0.848039647510822E+00 -0.848039647510822E+02
 -0.423704436434061E+00 -0.741262543272473E+00 -0.741262543272473E+02
 -0.423704436434061E+00 -0.635605065171759E+00 -0.635605065171759E+02
 -0.423704436434061E+00 -0.529610856542781E+00 -0.529610856542781E+02
 -0.423704436434061E+00 -0.423704436434061E+00 -0.423704436434061E+02
 -0.423704436434061E+00 -0.317774315082929E+00 -0.317774315082929E+02
 -0.423704436434061E+00 -0.211850529508475E+00 -0.211850529508475E+02
 -0.423704436434061E+00 -0.105925053478478E+00 -0.105925053478478E+02
 -0.423704436434061E+00 -0.790519978293986E-17 -0.790519978293986E-15
 -0.423704436434061E+00  0.105925053478478E+00  0.105925053478478E+02
 -0.423704436434061E+00  0.211850529508475E+00  0.211850529508475E+02
 -0.423704436434061E+00  0.317774315082929E+00  0.317774315082929E+02
 -0.423704436434061E+00  0.423704436434061E+00  0.423704436434061E+02
 -0.423704436434061E+00  0.529610856542781E+00  0.529610856542781E+02
 -0.423704436434061E+00  0.635605065171759E+00  0.635605065171759E+02
 -0.423704436434061E+00  0.741262543272473E+00  0.741262543272473E+02
 -0.423704436434061E+00  0.848039647510822E+00  0.848039647510822E+02
 -0.423704436434061E+00  0.955162973124140E+00  0.955162973124140E+02
 -0.423704436434061E+00  0.100000000000000E+01  0.100000000000000E+03
 -0.317774315082929E+00 -0.100000000000000E+01 -0.100000000000000E+03
 -0.317774315082929E+00 -0.955162973124140E+00 -0.955162973124140E+02
 -0.317774315082929E+00 -0.848039647510822E+00 -0.848039647510822E+02
 -0.317774315082929E+00 -0.741262543272473E+00 -0.741262543272473E+02
 -0.317774315082929E+00 -0.635605065171759E+00 -0.635605065171759E+02
 -0.317774315082929E+00 -0.529610856542781E+00 -0.529610856542781E+02
 -0.317774315082929E+00 -0.423704436434061E+00 -0.423704436434061E+02
 -0.317774315082929E+00 -0.317774315082929E+00 -0.317774315082929E+02
 -0.317774315082929E+00 -0.211850529508475E+00 -0.211850529508475E+02
 -0.317774315082929E+00 -0.105925053478478E+00 -0.105925053478478E+02
 -0.317774315082929E+00 -0.790519978293986E-17 -0.790519978293986E-15
 -0.317774315082929E+00  0.105925053478478E+00  0.105925053478478E+02
 -0.317774315082929E+00  0.211850529508475E+00  0.211850529508475E+02
 -0.317774315082929E+00  0.317774315082929E+00  0.317774315082929E+02
 -0.317774315082929E+00  0.423704436434061E+00  0.423704436434061E+02
 -0.317774315082929E+00  0.529610856542781E+00  0.529610856542781E+02
 -0.317774315082929E+00  0.635605065171759E+00  0.635605065171759E+02
 -0.317774315082929E+00  0.741262543272473E+00  0.741262543272473E+02
 -0.317774315082929E+00  0.848039647510822E+00  0.848039647510822E+02
 -0.317774315082929E+00  0.955162973124140E+00  0.955162973124140E+02
 -0.317774315082929E+00  0.100000000000000E+01  0.100000000000000E+03
 -0.211850529508475E+00 -0.100000000000000E+01 -0.100000000000000E+03
 -0.211850529508475E+00 -0.955162973124140E+00 -0.955162973124140E+02
 -0.211850529508475E+00 -0.848039647510822E+00 -0.848039647510822E+02
 -0.211850529508475E+00 -0.741262543272473E+00 -0.741262543272473E+02
 -0.211850529508475E+00 -0.635605065171759E+00 -0.635605065171759E+02
 -0.211850529508475E+00 -0.529610856542781E+00 -0.529610856542781E+02
 -0.211850529508475E+00 -0.423704436434061E+00 -0.423704436434061E+02
 -0.211850529508475E+00 -0.317774315082929E+00 -0.317774315082929E+02
 -0.211850529508475E+00 -0.211850529508475E+00 -0.211850529508475E+02
 -0.211850529508475E+00 -0.105925053478478E+00 -0.105925053478478E+02
 -0.211850529508475E+00 -0.790519978293986E-17 -0.790519978293986E-15
 -0.211850529508475E+00  0.105925053478478E+00  0.105925053478478E+02
 -0.211850529508475E+00  0.211850529508475E+00  0.211850529508475E+02
 -0.211850529508475E+00  0.317774315082929E+00  0.317774315082929E+02
 -0.211850529508475E+00  0.423704436434061E+00  0.423704436434061E+02
 -0.211850529508475E+00  0.529610856542781E+00  0.529610856542781E+02
 -0.211850529508475E+00  0.635605065171759E+00  0.635605065171759E+02
 -0.211850529508475E+00  0.741262543272473E+00  0.741262543272473E+02
 -0.211850529508475E+00  0.848039647510822E+00  0.848039647510822E+02
 -0.211850529508475E+00  0.955162973124140E+00  0.955162973124140E+02
 -0.211850529508475E+00  0.100000000000000E+01  0.100000000000000E+03
 -0.105925053478478E+00 -0.100000000000000E+01 -0.100000000000000E+03
 -0.105925053478478E+00 -0.955162973124140E+00 -0.955162973124140E+02
 -0.105925053478478E+00 -0.848039647510822E+00 -0.848039647510822E+02
 -0.105925053478478E+00 -0.741262543272473E+00 -0.741262543272473E+02
 -0.105925053478478E+00 -0.635605065171759E+00 -0.635605065171759E+02
 -0.105925053478478E+00 -0.529610856542781E+00 -0.529610856542781E+02
 -0.105925053478478E+00 -0.423704436434061E+00 -0.423704436434061E+02
 -0.105925053478478E+00 -0.317774315082929E+00 -0.317774315082929E+02
 -0.105925053478478E+00 -0.211850529508475E+00 -0.211850529508475E+02
 -0.105925053478478E+00 -0.105925053478478E+00 -0.105925053478478E+02
 -0.105925053478478E+00 -0.790519978293986E-17 -0.790519978293986E-15
 -0.105925053478478E+00  0.105925053478478E+00  0.105925053478478E+02
 -0.105925053478478E+00  0.211850529508475E+00  0.211850529508475E+02
 -0.105925053478478E+00  0.317774315082929E+00  0.317774315082929E+02
 -0.105925053478478E+00  0.423704436434061E+00  0.423704436434061E+02
 -0.105925053478478E+00  0.529610856542781E+00  0.529610856542781E+02
 -0.105925053478478E+00  0.635605065171759E+00  0.635605065171759E+02
 -0.105925053478478E+00  0.741262543272473E+00  0.741262543272473E+02
 -0.105925053478478E+00  0.848039647510822E+00  0.848039647510822E+02
 -0.105925053478478E+00  0.955162973124140E+00  0.955162973124140E+02
 -0.105925053478478E+00  0.100000000000000E+01  0.100000000000000E+03
 -0.790519978293986E-17 -0.100000000000000E+01 -0.100000000000000E+03
 -0.790519978293986E-17 -0.955162973124140E+00 -0.955162973124140E+02
 -0.790519978293986E-17 -0.848039647510822E+00 -0.848039647510822E+02
 -0.790519978293986E-17 -0.741262543272473E+00 -0.741262543272473E+02
 -0.790519978293986E-17 -0.635605065171759E+00 -0.635605065171759E+02
 -0.790519978293986E-17 -0.529610856542781E+00 -0.529610856542781E+02
 -0.790519978293986E-17 -0.423704436434061E+00 -0.423704436434061E+02
 -0.790519978293986E-17 -0.317774315082929E+00 -0.317774315082929E+02
 -0.790519978293986E-17 -0.211850529508475E+00 -0.211850529508475E+02
 -0.790519978293986E-17 -0.105925053478478E+00 -0.105925053478478E+02
 -0.790519978293986E-17 -0.790519978293986E-17 -0.790519978293986E-15
 -0.790519978293986E-17  0.105925053478478E+00  0.105925053478478E+02
 -0.790519978293986E-17  0.211850529508475E+00  0.211850529508475E+02
 -0.790519978293986E-17  0.317774315082929E+00  0.317774315082929E+02
 -0.790519978293986E-17  0.423704436434061E+00  0.423704436434061E+02
 -0.790519978293986E-17  0.529610856542781E+00  0.529610856542781E+02
 -0.790519978293986E-17  0.635605065171759E+00  0.635605065171759E+02
 -0.790519978293986E-17  0.741262543272473E+00  0.741262543272473E+02
 -0.790519978293986E-17  0.848039647510822E+00  0.848039647510822E+02
 -0.790519978293986E-17  0.955162973124140E+00  0.955162973124140E+02
 -0.790519978293986E-17  0.100000000000000E+01  0.100000000000000E+03
  0.105925053478478E+00 -0.100000000000000E+01 -0.100000000000000E+03
  0.105925053478478E+00 -0.955162973124140E+00 -0.955162973124140E+02
  0.105925053478478E+00 -0.848039647510822E+00 -0.848039647510822E+02
  0.105925053478478E+00 -0.741262543272473E+00 -0.741262543272473E+02
  0.105925053478478E+00 -0.635605065171759E+00 -0.635605065171759E+02
  0.105925053478478E+00 -0.529610856542781E+00 -0.529610856542781E+02
  0.105925053478478E+00 -0.423704436434061E+00 -0.423704436434061E+02
  0.105925053478478E+00 -0.317774315082929E+00 -0.317774315082929E+02
  0.105925053478478E+00 -0.211850529508475E+00 -0.211850529508475E+02
  0.105925053478478E+00 -0.105925053478478E+00 -0.105925053478478E+02
  0.105925053478478E+00 -0.790519978293986E-17 -0.790519978293986E-15
  0.105925053478478E+00  0.105925053478478E+00  0.105925053478478E+02
  0.105925053478478E+00  0.211850529508475E+00  0.211850529508475E+02
  0.105925053478478E+00  0.317774315082929E+00  0.317774315082929E+02
  0.105925053478478E+00  0.423704436434061E+00  0.423704436434061E+02
  0.105925053478478E+00  0.529610856542781E+00  0.529610856542781E+02
  0.105925053478478E+00  0.635605065171759E+00  0.635605065171759E+02
  0.105925053478478E+00  0.741262543272473E+00  0.741262543272473E+02
  0.105925053478478E+00  0.848039647510822E+00  0.848039647510822E+02
  0.105925053478478E+00  0.955162973124140E+00  0.955162973124140E+02
  0.105925053478478E+00  0.100000000000000E+01  0.100000000000000E+03
  0.211850529508475E+00 -0.100000000000000E+01 -0.100000000000000E+03
  0.211850529508475E+00 -0.955162973124140E+00 -0.955162973124140E+02
  0.211850529508475E+00 -0.848039647510822E+00 -0.848039647510822E+02
  0.211850529508475E+00 -0.741262543272473E+00 -0.741262543272473E+02
  0.211850529508475E+00 -0.635605065171759E+00 -0.635605065171759E+02
  0.211850529508475E+00 -0.529610856542781E+00 -0.529610856542781E+02
  0.211850529508475E+00 -0.423704436434061E+00 -0.423704436434061E+02
  0.211850529508475E+00 -0.317774315082929E+00 -0.317774315082929E+02
  0.211850529508475E+00 -0.211850529508475E+00 -0.211850529508475E+02
  0.211850529508475E+00 -0.105925053478478E+00 -0.105925053478478E+02
  0.211850529508475E+00 -0.790519978293986E-17 -0.790519978293986E-15
  0.211850529508475E+00  0.105925053478478E+00  0.105925053478478E+02
  0.211850529508475E+00  0.211850529508475E+00  0.211850529508475E+02
  0.211850529508475E+00  0.317774315082929E+00  0.317774315082929E+02
  0.211850529508475E+00  0.423704436434061E+00  0.423704436434061E+02
  0.211850529508475E+00  0.529610856542781E+00  0.529610856542781E+02
  0.211850529508475E+00  0.635605065171759E+00  0.635605065171759E+02
  0.211850529508475E+00  0.741262543272473E+00  0.741262543272473E+02
  0.211850529508475E+00  0.848039647510822E+00  0.848039647510822E+02
  0.211850529508475E+00  0.955162973124140E+00  0.955162973124140E+02
  0.211850529508475E+00  0.100000000000000E+01  0.100000000000000E+03
  0.317774315082929E+00 -0.100000000000000E+01 -0.100000000000000E+03
  0.317774315082929E+00 -0.955162973124140E+00 -0.955162973124140E+02
  0.317774315082929E+00 -0.848039647510822E+00 -0.848039647510822E+02
  0.317774315082929E+00 -0.741262543272473E+00 -0.741262543272473E+02
  0.317774315082929E+00 -0.635605065171759E+00 -0.635605065171759E+02
  0.317774315082929E+00 -0.529610856542781E+00 -0.529610856542781E+02
  0.317774315082929E+00 -0.423704436434061E+00 -0.423704436434061E+02
  0.317774315082929E+00 -0.317774315082929E+00 -0.317774315082929E+02
  0.317774315082929E+00 -0.211850529508475E+00 -0.211850529508475E+02
  0.317774315082929E+00 -0.105925053478478E+00 -0.105925053478478E+02
  0.317774315082929E+00 -0.790519978293986E-17 -0.790519978293986E-15
  0.317774315082929E+00  0.105925053478478E+00  0.105925053478478E+02
  0.317774315082929E+00  0.211850529508475E+00  0.211850529508475E+02
  0.317774315082929E+00  0.317774315082929E+00  0.317774315082929E+02
  0.317774315082929E+00  0.423704436434061E+00  0.423704436434061E+02
  0.317774315082929E+00  0.529610856542781E+00  0.529610856542781E+02
  0.317774315082929E+00  0.635605065171759E+00  0.635605065171759E+02
  0.317774315082929E+00  0.741262543272473E+00  0.741262543272473E+02
  0.317774315082929E+00  0.848039647510822E+00  0.848039647510822E+02
  0.317774315082929E+00  0.955162973124140E+00  0.955162973124140E+02
  0.317774315082929E+00  0.100000000000000E+01  0.100000000000000E+03
  0.423704436434061E+00 -0.100000000000000E+01 -0.100000000000000E+03
  0.423704436434061E+00 -0.955162973124140E+00 -0.955162973124140E+02
  0.423704436434061E+00 -0.848039647510822E+00 -0.848039647510822E+02
  0.423704436434061E+00 -0.741262543272473E+00 -0.741262543272473E+02
  0.423704436434061E+00 -0.635605065171759E+00 -0.635605065171759E+02
  0.423704436434061E+00 -0.529610856542781E+00 -0.529610856542781E+02
  0.423704436434061E+00 -0.423704436434061E+00 -0.423704436434061E+02
  0.423704436434061E+00 -0.317774315082929E+00 -0.317774315082929E+02
  0.423704436434061E+00 -0.211850529508475E+00 -0.211850529508475E+02
  0.423704436434061E+00 -0.105925053478478E+00 -0.105925053478478E+02
  0.423704436434061E+00 -0.790519978293986E-17 -0.790519978293986E-15
  0.423704436434061E+00  0.105925053478478E+00  0.105925053478478E+02
  0.423704436434061E+00  0.211850529508475E+00  0.211850529508475E+02
  0.423704436434061E+00  0.317774315082929E+00  0.317774315082929E+02
  0.423704436434061E+00  0.423704436434061E+00  0.423704436434061E+02
  0.423704436434061E+00  0.529610856542781E+00  0.529610856542781E+02
  0.423704436434061E+00  0.635605065171759E+00  0.635605065171759E+02
  0.423704436434061E+00  0.741262543272473E+00  0.741262543272473E+02
  0.423704436434061E+00  0.848039647510822E+00  0.848039647510822E+02
  0.423704436434061E+00  0.955162973124140E+00  0.955162973124140E+02
  0.423704436434061E+00  0.100000000000000E+01  0.100000000000000E+03
  0.529610856542781E+00 -0.100000000000000E+01 -0.100000000000000E+03
  0.529610856542781E+00 -0.955162973124140E+00 -0.955162973124140E+02
  0.529610856542781E+00 -0.848039647510822E+00 -0.848039647510822E+02
  0.529610856542781E+00 -0.741262543272473E+00 -0.741262543272473E+02
  0.529610856542781E+00 -0.635605065171759E+00 -0.635605065171759E+02
  0.529610856542781E+00 -0.529610856542781E+00 -0.529610856542781E+02
  0.529610856542781E+00 -0.423704436434061E+00 -0.423704436434061E+02
  0.529610856542781E+00 -0.317774315082929E+00 -0.317774315082929E+02
  0.529610856542781E+00 -0.211850529508475E+00 -0.211850529508475E+02
  0.529610856542781E+00 -0.105925053478478E+00 -0.105925053478478E+02
  0.529610856542781E+00 -0.790519978293986E-17 -0.790519978293986E-15
  0.529610856542781E+00  0.105925053478478E+00  0.105925053478478E+02
  0.529610856542781E+00  0.211850529508475E+00  0.211850529508475E+02
  0.529610856542781E+00  0.317774315082929E+00  0.317774315082929E+02
  0.529610856542781E+00  0.423704436434061E+00  0.423704436434061E+02
  0.529610856542781E+00  0.529610856542781E+00  0.529610856542781E+02
  0.529610856542781E+00  0.635605065171759E+00  0.635605065171759E+02
  0.529610856542781E+00  0.741262543272473E+00  0.741262543272473E+02
  0.529610856542781E+00  0.848039647510822E+00  0.848039647510822E+02
  0.529610856542781E+00  0.955162973124140E+00  0.955162973124140E+02
  0.529610856542781E+00  0.100000000000000E+01  0.100000000000000E+03
  0.635605065171759E+00 -0.100000000000000E+01 -0.100000000000000E+03
  0.635605065171759E+00 -0.955162973124140E+00 -0.955162973124140E+02
  0.635605065171759E+00 -0.848039647510822E+00 -0.848039647510822E+02
  0.635605065171759E+00 -0.741262543272473E+00 -0.741262543272473E+02
  0.635605065171759E+00 -0.635605065171759E+00 -0.635605065171759E+02
  0.635605065171759E+00 -0.529610856542781E+00 -0.529610856542781E+02
  0.635605065171759E+00 -0.423704436434061E+00 -0.423704436434061E+02
  0.635605065171759E+00 -0.317774315082929E+00 -0.317774315082929E+02
  0.635605065171759E+00 -0.211850529508475E+00 -0.211850529508475E+02
  0.635605065171759E+00 -0.105925053478478E+00 -0.105925053478478E+02
  0.635605065171759E+00 -0.790519978293986E-17 -0.790519978293986E-15
  0.635605065171759E+00  0.105925053478478E+00  0.105925053478478E+02
  0.635605065171759E+00  0.211850529508475E+00  0.211850529508475E+02
  0.635605065171759E+00  0.317774315082929E+00  0.317774315082929E+02
  0.635605065171759E+00  0.423704436434061E+00  0.423704436434061E+02
  0.635605065171759E+00  0.529610856542781E+00  0.529610856542781E+02
  0.635605065171759E+00  0.635605065171759E+00  0.635605065171759E+02
  0.635605065171759E+00  0.741262543272473E+00  0.741262543272473E+02
  0.635605065171759E+00  0.848039647510822E+00  0.848039647510822E+02
  0.635605065171759E+00  0.955162973124140E+00  0.955162973124140E+02
  0.635605065171759E+00  0.100000000000000E+01  0.100000000000000E+03
  0.741262543272473E+00 -0.100000000000000E+01 -0.100000000000000E+03
  0.741262543272473E+00 -0.955162973124140E+00 -0.955162973124140E+02
  0.741262543272473E+00 -0.848039647510822E+00 -0.848039647510822E+02
  0.741262543272473E+00 -0.741262543272473E+00 -0.741262543272473E+02
  0.741262543272473E+00 -0.635605065171759E+00 -0.635605065171759E+02
  0.741262543272473E+00 -0.529610856542781E+00 -0.529610856542781E+02
  0.741262543272473E+00 -0.423704436434061E+00 -0.423704436434061E+02
  0.741262543272473E+00 -0.317774315082929E+00 -0.317774315082929E+02
  0.741262543272473E+00 -0.211850529508475E+00 -0.211850529508475E+02
  0.741262543272473E+00 -0.105925053478478E+00 -0.105925053478478E+02
  0.741262543272473E+00 -0.790519978293986E-17 -0.790519978293986E-15
  0.741262543272473E+00  0.105925053478478E+00  0.105925053478478E+02
  0.741262543272473E+00  0.211850529508475E+00  0.211850529508475E+02
  0.741262543272473E+00  0.317774315082929E+00  0.317774315082929E+02
  0.741262543272473E+00  0.423704436434061E+00  0.423704436434061E+02
  0.741262543272473E+00  0.529610856542781E+00  0.529610856542781E+02
  0.741262543272473E+00  0.635605065171759E+00  0.635605065171759E+02
  0.741262543272473E+00  0.741262543272473E+00  0.741262543272473E+02
  0.741262543272473E+00  0.848039647510822E+00  0.848039647510822E+02
  0.741262543272473E+00  0.955162973124140E+00  0.955162973124140E+02
  0.741262543272473E+00  0.100000000000000E+01  0.100000000000000E+03
  0.848039647510822E+00 -0.100000000000000E+01 -0.100000000000000E+03
  0.848039647510822E+00 -0.955162973124140E+00 -0.955162973124140E+02
  0.848039647510822E+00 -0.848039647510822E+00 -0.848039647510822E+02
  0.848039647510822E+00 -0.741262543272473E+00 -0.741262543272473E+02
  0.848039647510822E+00 -0.635605065171759E+00 -0.635605065171759E+02
  0.848039647510822E+00 -0.529610856542781E+00 -0.529610856542781E+02
  0.848039647510822E+00 -0.423704436434061E+00 -0.423704436434061E+02
  0.848039647510822E+00 -0.317774315082929E+00 -0.317774315082929E+02
  0.848039647510822E+00 -0.211850529508475E+00 -0.211850529508475E+02
  0.848039647510822E+00 -0.105925053478478E+00 -0.105925053478478E+02
  0.848039647510822E+00 -0.790519978293986E-17 -0.790519978293986E-15
  0.848039647510822E+00  0.105925053478478E+00  0.105925053478478E+02
  0.848039647510822E+00  0.211850529508475E+00  0.211850529508475E+02
  0.848039647510822E+00  0.317774315082929E+00  0.317774315082929E+02
  0.848039647510822E+00  0.423704436434061E+00  0.423704436434061E+02
  0.848039647510822E+00  0.529610856542781E+00  0.529610856542781E+02
  0.848039647510822E+00  0.635605065171759E+00  0.635605065171759E+02
  0.848039647510822E+00  0.741262543272473E+00  0.741262543272473E+02
  0.848039647510822E+00  0.848039647510822E+00  0.848039647510822E+02
  0.848039647510822E+00  0.955162973124140E+00  0.955162973124140E+02
  0.848039647510822E+00  0.100000000000000E+01  0.100000000000000E+03
  0.955162973124140E+00 -0.100000000000000E+01 -0.100000000000000E+03
  0.955162973124140E+00 -0.955162973124140E+00 -0.955162973124140E+02
  0.955162973124140E+00 -0.848039647510822E+00 -0.848039647510822E+02
  0.955162973124140E+00 -0.741262543272473E+00 -0.741262543272473E+02
  0.955162973124140E+00 -0.635605065171759E+00 -0.635605065171759E+02
  0.955162973124140E+00 -0.529610856542781E+00 -0.529610856542781E+02
  0.955162973124140E+00 -0.423704436434061E+00 -0.423704436434061E+02
  0.955162973124140E+00 -0.317774315082929E+00 -0.317774315082929E+02
  0.955162973124140E+00 -0.211850529508475E+00 -0.211850529508475E+02
  0.955162973124140E+00 -0.105925053478478E+00 -0.105925053478478E+02
  0.955162973124140E+00 -0.790519978293986E-17 -0.790519978293986E-15
  0.955162973124140E+00  0.105925053478478E+00  0.105925053478478E+02
  0.955162973124140E+00  0.211850529508475E+00  0.211850529508475E+02
  0.955162973124140E+00  0.317774315082929E+00  0.317774315082929E+02
  0.955162973124140E+00  0.423704436434061E+00  0.423704436434061E+02
  0.955162973124140E+00  0.529610856542781E+00  0.529610856542781E+02
  0.955162973124140E+00  0.635605065171759E+00  0.635605065171759E+02
  0.955162973124140E+00  0.741262543272473E+00  0.741262543272473E+02
  0.955162973124140E+00  0.848039647510822E+00  0.848039647510822E+02
  0.955162973124140E+00  0.955162973124140E+00  0.955162973124140E+02
  0.955162973124140E+00  0.100000000000000E+01  0.100000000000000E+03
  0.100000000000000E+01 -0.100000000000000E+01 -0.100000000000000E+03
  0.100000000000000E+01 -0.955162973124140E+00 -0.955162973124140E+02
  0.100000000000000E+01 -0.848039647510822E+00 -0.848039647510822E+02
  0.100000000000000E+01 -0.741262543272473E+00 -0.741262543272473E+02
  0.100000000000000E+01 -0.635605065171759E+00 -0.635605065171759E+02
  0.100000000000000E+01 -0.529610856542781E+00 -0.529610856542781E+02
  0.100000000000000E+01 -0.423704436434061E+00 -0.423704436434061E+02