 VARIABLES =  $x$  (b)
 ZONE I=         961 ,DATAPACKING=POINT
  0.000000000000000E+00  0.000000000000000E+00  0.000000000000000E+00
  0.000000000000000E+00  0.604494922447252E-02  0.000000000000000E+00
  0.000000000000000E+00  0.236777173327253E-01  0.000000000000000E+00
  0.000000000000000E+00  0.514276011986298E-01  0.000000000000000E+00
  0.000000000000000E+00  0.869537974205172E-01  0.000000000000000E+00
  0.000000000000000E+00  0.127171115203571E+00  0.000000000000000E+00
  0.000000000000000E+00  0.168225003578148E+00  0.000000000000000E+00
  0.000000000000000E+00  0.205733380460454E+00  0.000000000000000E+00
  0.000000000000000E+00  0.242163119217158E+00  0.000000000000000E+00
  0.000000000000000E+00  0.278735033771838E+00  0.000000000000000E+00
  0.000000000000000E+00  0.315630987498634E+00  0.000000000000000E+00
  0.000000000000000E+00  0.352750971809412E+00  0.000000000000000E+00
  0.000000000000000E+00  0.389908180431688E+00  0.000000000000000E+00
  0.000000000000000E+00  0.426983171375617E+00  0.000000000000000E+00
  0.000000000000000E+00  0.464000268876714E+00  0.000000000000000E+00
  0.000000000000000E+00  0.501017271733599E+00  0.000000000000000E+00
  0.000000000000000E+00  0.538046091824583E+00  0.000000000000000E+00
  0.000000000000000E+00  0.575073032851187E+00  0.000000000000000E+00
  0.000000000000000E+00  0.612091338824018E+00  0.000000000000000E+00
  0.000000000000000E+00  0.649127649067530E+00  0.000000000000000E+00
  0.000000000000000E+00  0.686263593370906E+00  0.000000000000000E+00
  0.000000000000000E+00  0.723394560214556E+00  0.000000000000000E+00
  0.000000000000000E+00  0.760270532330095E+00  0.000000000000000E+00
  0.000000000000000E+00  0.796825958826392E+00  0.000000000000000E+00
  0.000000000000000E+00  0.833418679216614E+00  0.000000000000000E+00
  0.000000000000000E+00  0.872184802457577E+00  0.000000000000000E+00
  0.000000000000000E+00  0.912817223350814E+00  0.000000000000000E+00
  0.000000000000000E+00  0.948476833500794E+00  0.000000000000000E+00
  0.000000000000000E+00  0.976286477818065E+00  0.000000000000000E+00
  0.000000000000000E+00  0.993946875613643E+00  0.000000000000000E+00
  0.000000000000000E+00  0.100000000000000E+01  0.000000000000000E+00
  0.604494922447252E-02  0.000000000000000E+00  0.000000000000000E+00
  0.604494922447252E-02  0.604494922447252E-02  0.205845551945390E-03
  0.604494922447252E-02  0.236777173327253E-01  0.807954891816713E-03
  0.604494922447252E-02  0.514276011986298E-01  0.176938848537325E-02
  0.604494922447252E-02  0.869537974205172E-01  0.305071998118105E-02
  0.604494922447252E-02  0.127171115203571E+00  0.461848380086513E-02
  0.604494922447252E-02  0.168225003578148E+00  0.641718266610962E-02
  0.604494922447252E-02  0.205733380460454E+00  0.831058719730805E-02
  0.604494922447252E-02  0.242163119217158E+00  0.104555044688079E-01
  0.604494922447252E-02  0.278735033771838E+00  0.129897027886295E-01
  0.604494922447252E-02  0.315630987498634E+00  0.159924068498754E-01
  0.604494922447252E-02  0.352750971809412E+00  0.194502448223782E-01
  0.604494922447252E-02  0.389908180431688E+00  0.231585788676638E-01
  0.604494922447252E-02  0.426983171375617E+00  0.266365731178504E-01
  0.604494922447252E-02  0.464000268876714E+00  0.291727841514814E-01
  0.604494922447252E-02  0.501017271733599E+00  0.300785094832519E-01
  0.604494922447252E-02  0.538046091824583E+00  0.290699371264469E-01
  0.604494922447252E-02  0.575073032851187E+00  0.264610451018550E-01
  0.604494922447252E-02  0.612091338824018E+00  0.229591719087969E-01
  0.604494922447252E-02  0.649127649067530E+00  0.192666968919780E-01
  0.604494922447252E-02  0.686263593370906E+00  0.158270294948154E-01
  0.604494922447252E-02  0.723394560214556E+00  0.128304422241936E-01
  0.604494922447252E-02  0.760270532330095E+00  0.103012392464559E-01
  0.604494922447252E-02  0.796825958826392E+00  0.817215757659736E-02
  0.604494922447252E-02  0.833418679216614E+00  0.634026387809894E-02
  0.604494922447252E-02  0.872184802457577E+00  0.464494863206360E-02
  0.604494922447252E-02  0.912817223350814E+00  0.305924011324354E-02
  0.604494922447252E-02  0.948476833500794E+00  0.177274553480744E-02
  0.604494922447252E-02  0.976286477818065E+00  0.809182080405409E-03
  0.604494922447252E-02  0.993946875613643E+00  0.206124017301664E-03
  0.604494922447252E-02  0.100000000000000E+01  0.000000000000000E+00
  0.236777173327253E-01  0.000000000000000E+00  0.000000000000000E+00
  0.236777173327253E-01  0.604494922447252E-02  0.804619920155312E-03
  0.236777173327253E-01  0.236777173327253E-01  0.315815874317467E-02
  0.236777173327253E-01  0.514276011986298E-01  0.691608580025233E-02
  0.236777173327253E-01  0.869537974205172E-01  0.119238767451231E-01
  0.236777173327253E-01  0.127171115203571E+00  0.180500751261857E-01
  0.236777173327253E-01  0.168225003578148E+00  0.250774043455304E-01
  0.236777173327253E-01  0.205733380460454E+00  0.324742211881733E-01
  0.236777173327253E-01  0.242163119217158E+00  0.408549408310063E-01
  0.236777173327253E-01  0.278735033771838E+00  0.507615488887464E-01
  0.236777173327253E-01  0.315630987498634E+00  0.625096042643601E-01
  0.236777173327253E-01  0.352750971809412E+00  0.760524677223677E-01
  0.236777173327253E-01  0.389908180431688E+00  0.905896697880765E-01
  0.236777173327253E-01  0.426983171375617E+00  0.104231266620531E+00
  0.236777173327253E-01  0.464000268876714E+00  0.114180729045742E+00
  0.236777173327253E-01  0.501017271733599E+00  0.117733886937817E+00
  0.236777173327253E-01  0.538046091824583E+00  0.113777258022761E+00
  0.236777173327253E-01  0.575073032851187E+00  0.103542706344734E+00
  0.236777173327253E-01  0.612091338824018E+00  0.898077095207489E-01
  0.236777173327253E-01  0.649127649067530E+00  0.753332477784653E-01
  0.236777173327253E-01  0.686263593370906E+00  0.618622607091131E-01
  0.236777173327253E-01  0.723394560214556E+00  0.501387642909161E-01
  0.236777173327253E-01  0.760270532330095E+00  0.402520915881120E-01
  0.236777173327253E-01  0.796825958826392E+00  0.319334146669680E-01
  0.236777173327253E-01  0.833418679216614E+00  0.247769092533034E-01
  0.236777173327253E-01  0.872184802457577E+00  0.181534791010324E-01
  0.236777173327253E-01  0.912817223350814E+00  0.119571732541943E-01
  0.236777173327253E-01  0.948476833500794E+00  0.692920691826018E-02
  0.236777173327253E-01  0.976286477818065E+00  0.316295555537640E-02
  0.236777173327253E-01  0.993946875613643E+00  0.805708399120159E-03
  0.236777173327253E-01  0.100000000000000E+01  0.000000000000000E+00
  0.514276011986298E-01  0.000000000000000E+00  0.000000000000000E+00
  0.514276011986298E-01  0.604494922447252E-02  0.173334085289574E-02
  0.514276011986298E-01  0.236777173327253E-01  0.680326336988111E-02
  0.514276011986298E-01  0.514276011986298E-01  0.148972060904384E-01
  0.514276011986298E-01  0.869537974205172E-01  0.256786984139305E-01
  0.514276011986298E-01  0.127171115203571E+00  0.388588690790640E-01
  0.514276011986298E-01  0.168225003578148E+00  0.539663263020579E-01
  0.514276011986298E-01  0.205733380460454E+00  0.698627863569651E-01
  0.514276011986298E-01  0.242163119217158E+00  0.878848016952470E-01
  0.514276011986298E-01  0.278735033771838E+00  0.109234684487397E+00
  0.514276011986298E-01  0.315630987498634E+00  0.134664560910654E+00
  0.514276011986298E-01  0.352750971809412E+00  0.164177558525334E+00
  0.514276011986298E-01  0.389908180431688E+00  0.196119284146891E+00
  0.514276011986298E-01  0.426983171375617E+00  0.226336773326376E+00
  0.514276011986298E-01  0.464000268876714E+00  0.248514996285693E+00
  0.514276011986298E-01  0.501017271733599E+00  0.256461952091919E+00
  0.514276011986298E-01  0.538046091824583E+00  0.247613461636886E+00
  0.514276011986298E-01  0.575073032851187E+00  0.224806129592132E+00
  0.514276011986298E-01  0.612091338824018E+00  0.194394189018804E+00
  0.514276011986298E-01  0.649127649067530E+00  0.162604378193488E+00
  0.514276011986298E-01  0.686263593370906E+00  0.133259456769858E+00
  0.514276011986298E-01  0.723394560214556E+00  0.107890360113168E+00
  0.514276011986298E-01  0.760270532330095E+00  0.865875538815317E-01
  0.514276011986298E-01  0.796825958826392E+00  0.687004483281729E-01
  0.514276011986298E-01  0.833418679216614E+00  0.533204930842325E-01
  0.514276011986298E-01  0.872184802457577E+00  0.390812475139818E-01
  0.514276011986298E-01  0.912817223350814E+00  0.257503623242146E-01
  0.514276011986298E-01  0.948476833500794E+00  0.149254625977626E-01
  0.514276011986298E-01  0.976286477818065E+00  0.681359608145907E-02
  0.514276011986298E-01  0.993946875613643E+00  0.173568568447823E-02
  0.514276011986298E-01  0.100000000000000E+01  0.000000000000000E+00
  0.869537974205172E-01  0.000000000000000E+00  0.000000000000000E+00
  0.869537974205172E-01  0.604494922447252E-02  0.287487913715447E-02
  0.869537974205172E-01  0.236777173327253E-01  0.112831158097469E-01
  0.869537974205172E-01  0.514276011986298E-01  0.247014464896956E-01
  0.869537974205172E-01  0.869537974205172E-01  0.425572489929675E-01
  0.869537974205172E-01  0.127171115203571E+00  0.643475865196135E-01
  0.869537974205172E-01  0.168225003578148E+00  0.892737338731140E-01
  0.869537974205172E-01  0.205733380460454E+00  0.115469171546289E+00
  0.869537974205172E-01  0.242163119217158E+00  0.145188796681864E+00
  0.869537974205172E-01  0.278735033771838E+00  0.180540999300406E+00
  0.869537974205172E-01  0.315630987498634E+00  0.223030658301981E+00
  0.869537974205172E-01  0.352750971809412E+00  0.273058153977088E+00
  0.869537974205172E-01  0.389908180431688E+00  0.328184870043567E+00
  0.869537974205172E-01  0.426983171375617E+00  0.381275146189186E+00
  0.869537974205172E-01  0.464000268876714E+00  0.420787622274254E+00
  0.869537974205172E-01  0.501017271733599E+00  0.435051620639133E+00
  0.869537974205172E-01  0.538046091824583E+00  0.419172894780269E+00
  0.869537974205172E-01  0.575073032851187E+00  0.378564769536198E+00
  0.869537974205172E-01  0.612091338824018E+00  0.325181137251106E+00
  0.869537974205172E-01  0.649127649067530E+00  0.270369891928235E+00
  0.869537974205172E-01  0.686263593370906E+00  0.220669262197549E+00
  0.869537974205172E-01  0.723394560214556E+00  0.178307862352560E+00
  0.869537974205172E-01  0.760270532330095E+00  0.143047043271485E+00
  0.869537974205172E-01  0.796825958826392E+00  0.113553947572077E+00
  0.869537974205172E-01  0.833418679216614E+00  0.882090283752155E-01
  0.869537974205172E-01  0.872184802457577E+00  0.647148569970019E-01
  0.869537974205172E-01  0.912817223350814E+00  0.426758472439542E-01
  0.869537974205172E-01  0.948476833500794E+00  0.247482740396513E-01
  0.869537974205172E-01  0.976286477818065E+00  0.113002504140188E-01
  0.869537974205172E-01  0.993946875613643E+00  0.287876819198437E-02
  0.869537974205172E-01  0.100000000000000E+01  0.000000000000000E+00
  0.127171115203571E+00  0.000000000000000E+00  0.000000000000000E+00
  0.127171115203571E+00  0.604494922447252E-02  0.406683650712467E-02
  0.127171115203571E+00  0.236777173327253E-01  0.159596310218312E-01
  0.127171115203571E+00  0.514276011986298E-01  0.349256526425762E-01
  0.127171115203571E+00  0.869537974205172E-01  0.601167967495113E-01
  0.127171115203571E+00  0.127171115203571E+00  0.907562896891944E-01
  0.127171115203571E+00  0.168225003578148E+00  0.125656419063500E+00
  0.127171115203571E+00  0.205733380460454E+00  0.162203125751867E+00
  0.127171115203571E+00  0.242163119217158E+00  0.203619105629197E+00
  0.127171115203571E+00  0.278735033771838E+00  0.253042525939728E+00
  0.127171115203571E+00  0.315630987498634E+00  0.313022361258176E+00
  0.127171115203571E+00  0.352750971809412E+00  0.384834964463361E+00
  0.127171115203571E+00  0.389908180431688E+00  0.465665386713146E+00
  0.127171115203571E+00  0.426983171375617E+00  0.545153346747969E+00
  0.127171115203571E+00  0.464000268876714E+00  0.605269243995282E+00
  0.127171115203571E+00  0.501017271733599E+00  0.627155526424535E+00
  0.127171115203571E+00  0.538046091824583E+00  0.602797619247192E+00
  0.127171115203571E+00  0.575073032851187E+00  0.541058476122482E+00
  0.127171115203571E+00  0.612091338824018E+00  0.461215166542006E+00
  0.127171115203571E+00  0.649127649067530E+00  0.380939325729029E+00
  0.127171115203571E+00  0.686263593370906E+00  0.309666812338883E+00
  0.127171115203571E+00  0.723394560214556E+00  0.249910517436252E+00
  0.127171115203571E+00  0.760270532330095E+00  0.200632808456382E+00
  0.127171115203571E+00  0.796825958826392E+00  0.159533887708770E+00
  0.127171115203571E+00  0.833418679216614E+00  0.124168604828703E+00
  0.127171115203571E+00  0.872184802457577E+00  0.912716440300645E-01
  0.127171115203571E+00  0.912817223350814E+00  0.602838836813157E-01
  0.127171115203571E+00  0.948476833500794E+00  0.349917974848442E-01
  0.127171115203571E+00  0.976286477818065E+00  0.159838622323011E-01
  0.127171115203571E+00  0.993946875613643E+00  0.407233794974042E-02
  0.127171115203571E+00  0.100000000000000E+01  0.000000000000000E+00
  0.168225003578148E+00  0.000000000000000E+00  0.000000000000000E+00
  0.168225003578148E+00  0.604494922447252E-02  0.513814073586132E-02
  0.168225003578148E+00  0.236777173327253E-01  0.201608668907374E-01
  0.168225003578148E+00  0.514276011986298E-01  0.440941093743245E-01
  0.168225003578148E+00  0.869537974205172E-01  0.757951919006918E-01
  0.168225003578148E+00  0.127171115203571E+00  0.114154752988598E+00
  0.168225003578148E+00  0.168225003578148E+00  0.157537269898807E+00
  0.168225003578148E+00  0.205733380460454E+00  0.202629527273490E+00
  0.168225003578148E+00  0.242163119217158E+00  0.253424895532068E+00
  0.168225003578148E+00  0.278735033771838E+00  0.313865447958699E+00
  0.168225003578148E+00  0.315630987498634E+00  0.387370140295682E+00
  0.168225003578148E+00  0.352750971809412E+00  0.476072783921727E+00
  0.168225003578148E+00  0.389908180431688E+00  0.577110070456646E+00
  0.168225003578148E+00  0.426983171375617E+00  0.677707424768633E+00
  0.168225003578148E+00  0.464000268876714E+00  0.754526741556362E+00
  0.168225003578148E+00  0.501017271733599E+00  0.782637468329077E+00
  0.168225003578148E+00  0.538046091824583E+00  0.751356814865634E+00
  0.168225003578148E+00  0.575073032851187E+00  0.672496924510145E+00
  0.168225003578148E+00  0.612091338824018E+00  0.571513440351126E+00
  0.168225003578148E+00  0.649127649067530E+00  0.471236259584221E+00
  0.168225003578148E+00  0.686263593370906E+00  0.383246796357854E+00
  0.168225003578148E+00  0.723394560214556E+00  0.310035279038535E+00
  0.168225003578148E+00  0.760270532330095E+00  0.249769524121024E+00
  0.168225003578148E+00  0.796825958826392E+00  0.199346238863992E+00
  0.168225003578148E+00  0.833418679216614E+00  0.155694632599240E+00
  0.168225003578148E+00  0.872184802457577E+00  0.114797819536993E+00
  0.168225003578148E+00  0.912817223350814E+00  0.760050181345458E-01
  0.168225003578148E+00  0.948476833500794E+00  0.441774982286942E-01
  0.168225003578148E+00  0.976286477818065E+00  0.201914674439916E-01
  0.168225003578148E+00  0.993946875613643E+00  0.514509130987975E-02
  0.168225003578148E+00  0.100000000000000E+01  0.000000000000000E+00
  0.205733380460454E+00  0.000000000000000E+00  0.000000000000000E+00
  0.205733380460454E+00  0.604494922447252E-02  0.596765083500935E-02
  0.205733380460454E+00  0.236777173327253E-01  0.234117191241285E-01
  0.205733380460454E+00  0.514276011986298E-01  0.511696107228644E-01
  0.205733380460454E+00  0.869537974205172E-01  0.878165546705877E-01
  0.205733380460454E+00  0.127171115203571E+00  0.131882578190006E+00
  0.205733380460454E+00  0.168225003578148E+00  0.181255551167385E+00
  0.205733380460454E+00  0.205733380460454E+00  0.232010780690940E+00
  0.205733380460454E+00  0.242163119217158E+00  0.288530735286851E+00
  0.205733380460454E+00  0.278735033771838E+00  0.355021521518950E+00
  0.205733380460454E+00  0.315630987498634E+00  0.435069058669538E+00
  0.205733380460454E+00  0.352750971809412E+00  0.530933097678770E+00
  0.205733380460454E+00  0.389908180431688E+00  0.639622810829881E+00
  0.205733380460454E+00  0.426983171375617E+00  0.747602285456395E+00
  0.205733380460454E+00  0.464000268876714E+00  0.829995130103438E+00
  0.205733380460454E+00  0.501017271733599E+00  0.860139927297223E+00
  0.205733380460454E+00  0.538046091824583E+00  0.826595716036474E+00
  0.205733380460454E+00  0.575073032851187E+00  0.742012424079952E+00
  0.205733380460454E+00  0.612091338824018E+00  0.633610493541200E+00
  0.205733380460454E+00  0.649127649067530E+00  0.525719824869846E+00
  0.205733380460454E+00  0.686263593370906E+00  0.430596564646954E+00
  0.205733380460454E+00  0.723394560214556E+00  0.350828647513532E+00
  0.205733380460454E+00  0.760270532330095E+00  0.284484678269972E+00
  0.205733380460454E+00  0.796825958826392E+00  0.228334338244589E+00
  0.205733380460454E+00  0.833418679216614E+00  0.179169240857798E+00
  0.205733380460454E+00  0.872184802457577E+00  0.132618211966928E+00
  0.205733380460454E+00  0.912817223350814E+00  0.880585081154507E-01
  0.205733380460454E+00  0.948476833500794E+00  0.512662178311010E-01
  0.205733380460454E+00  0.976286477818065E+00  0.234472414711349E-01
  0.205733380460454E+00  0.993946875613643E+00  0.597572342920796E-02
  0.205733380460454E+00  0.100000000000000E+01  0.000000000000000E+00
  0.242163119217158E+00  0.000000000000000E+00  0.000000000000000E+00
  0.242163119217158E+00  0.604494922447252E-02  0.662962060537785E-02
  0.242163119217158E+00  0.236777173327253E-01  0.260037192088802E-01
  0.242163119217158E+00  0.514276011986298E-01  0.567912988742739E-01
  0.242163119217158E+00  0.869537974205172E-01  0.972856210645085E-01
  0.242163119217158E+00  0.127171115203571E+00  0.145618921277119E+00
  0.242163119217158E+00  0.168225003578148E+00  0.199155206921474E+00
  0.242163119217158E+00  0.205733380460454E+00  0.253392827725104E+00
  0.242163119217158E+00  0.242163119217158E+00  0.312770245503656E+00
  0.242163119217158E+00  0.278735033771838E+00  0.381244211709949E+00
  0.242163119217158E+00  0.315630987498634E+00  0.461840205725259E+00
  0.242163119217158E+00  0.352750971809412E+00  0.556122106682808E+00
  0.242163119217158E+00  0.389908180431688E+00  0.660746970854791E+00
  0.242163119217158E+00  0.426983171375617E+00  0.762946691548553E+00
  0.242163119217158E+00  0.464000268876714E+00  0.840062728251232E+00
  0.242163119217158E+00  0.501017271733599E+00  0.868124750416902E+00
  0.242163119217158E+00  0.538046091824583E+00  0.836893429489677E+00
  0.242163119217158E+00  0.575073032851187E+00  0.757690297013301E+00
  0.242163119217158E+00  0.612091338824018E+00  0.655010792348068E+00
  0.242163119217158E+00  0.649127649067530E+00  0.551048669529277E+00
  0.242163119217158E+00  0.686263593370906E+00  0.457385673887581E+00
  0.242163119217158E+00  0.723394560214556E+00  0.376969002414994E+00
  0.242163119217158E+00  0.760270532330095E+00  0.308555807535228E+00
  0.242163119217158E+00  0.796825958826392E+00  0.249492885510475E+00
  0.242163119217158E+00  0.833418679216614E+00  0.196907861227509E+00
  0.242163119217158E+00  0.872184802457577E+00  0.146421719478790E+00
  0.242163119217158E+00  0.912817223350814E+00  0.975521967888676E-01
  0.242163119217158E+00  0.948476833500794E+00  0.568983144215408E-01
  0.242163119217158E+00  0.976286477818065E+00  0.260431588756490E-01
  0.242163119217158E+00  0.993946875613643E+00  0.663858856178596E-02
  0.242163119217158E+00  0.100000000000000E+01  0.000000000000000E+00
  0.278735033771838E+00  0.000000000000000E+00  0.000000000000000E+00
  0.278735033771838E+00  0.604494922447252E-02  0.715506762638772E-02
  0.278735033771838E+00  0.236777173327253E-01  0.280588350030326E-01
  0.278735033771838E+00  0.514276011986298E-01  0.612282363448260E-01
  0.278735033771838E+00  0.869537974205172E-01  0.104674553884847E+00
  0.278735033771838E+00  0.127171115203571E+00  0.156102211592104E+00
  0.278735033771838E+00  0.168225003578148E+00  0.212315164439548E+00
  0.278735033771838E+00  0.205733380460454E+00  0.268269780825762E+00
  0.278735033771838E+00  0.242163119217158E+00  0.328207966732236E+00
  0.278735033771838E+00  0.278735033771838E+00  0.395468495562109E+00
  0.278735033771838E+00  0.315630987498634E+00  0.472031672644018E+00
  0.278735033771838E+00  0.352750971809412E+00  0.558266837208982E+00
  0.278735033771838E+00  0.389908180431688E+00  0.650432712260735E+00
  0.278735033771838E+00  0.426983171375617E+00  0.737656039522927E+00
  0.278735033771838E+00  0.464000268876714E+00  0.802037798945632E+00
  0.278735033771838E+00  0.501017271733599E+00  0.825210037771600E+00
  0.278735033771838E+00  0.538046091824583E+00  0.799412691281340E+00
  0.278735033771838E+00  0.575073032851187E+00  0.733226486582587E+00
  0.278735033771838E+00  0.612091338824018E+00  0.645461940645333E+00
  0.278735033771838E+00  0.649127649067530E+00  0.553709498669627E+00
  0.278735033771838E+00  0.686263593370906E+00  0.467871674081779E+00
  0.278735033771838E+00  0.723394560214556E+00  0.391328909052887E+00
  0.278735033771838E+00  0.760270532330095E+00  0.324002020980686E+00
  0.278735033771838E+00  0.796825958826392E+00  0.264283200884944E+00
  0.278735033771838E+00  0.833418679216614E+00  0.209973911109385E+00
  0.278735033771838E+00  0.872184802457577E+00  0.156951479309025E+00
  0.278735033771838E+00  0.912817223350814E+00  0.104959634130600E+00
  0.278735033771838E+00  0.948476833500794E+00  0.613433701961879E-01
  0.278735033771838E+00  0.976286477818065E+00  0.281013734205971E-01
  0.278735033771838E+00  0.993946875613643E+00  0.716474625057827E-02
  0.278735033771838E+00  0.100000000000000E+01  0.000000000000000E+00
  0.315630987498634E+00  0.000000000000000E+00  0.000000000000000E+00
  0.315630987498634E+00  0.604494922447252E-02  0.755570133061366E-02
  0.315630987498634E+00  0.236777173327253E-01  0.296235611460790E-01
  0.315630987498634E+00  0.514276011986298E-01  0.645869489985278E-01
  0.315630987498634E+00  0.869537974205172E-01  0.110186778969125E+00
  0.315630987498634E+00  0.127171115203571E+00  0.163696418159488E+00
  0.315630987498634E+00  0.168225003578148E+00  0.221364034279511E+00
  0.315630987498634E+00  0.205733380460454E+00  0.277672890146265E+00
  0.315630987498634E+00  0.242163119217158E+00  0.336535595196092E+00
  0.315630987498634E+00  0.278735033771838E+00  0.400539619546236E+00
  0.315630987498634E+00  0.315630987498634E+00  0.470537040507070E+00
  0.315630987498634E+00  0.352750971809412E+00  0.545730070860868E+00
  0.315630987498634E+00  0.389908180431688E+00  0.622213822677742E+00
  0.315630987498634E+00  0.426983171375617E+00  0.691484263443748E+00
  0.315630987498634E+00  0.464000268876714E+00  0.741008900162593E+00
  0.315630987498634E+00  0.501017271733599E+00  0.758544707812131E+00
  0.315630987498634E+00  0.538046091824583E+00  0.739013162481410E+00
  0.315630987498634E+00  0.575073032851187E+00  0.688030106372753E+00
  0.315630987498634E+00  0.612091338824018E+00  0.618180898280104E+00
  0.315630987498634E+00  0.649127649067530E+00  0.541848693099567E+00
  0.315630987498634E+00  0.686263593370906E+00  0.466813323822570E+00
  0.315630987498634E+00  0.723394560214556E+00  0.396667033195435E+00
  0.315630987498634E+00  0.760270532330095E+00  0.332458896017175E+00
  0.315630987498634E+00  0.796825958826392E+00  0.273701971057303E+00
  0.315630987498634E+00  0.833418679216614E+00  0.218982561744048E+00
  0.315630987498634E+00  0.872184802457577E+00  0.164574668201758E+00
  0.315630987498634E+00  0.912817223350814E+00  0.110484977756184E+00
  0.315630987498634E+00  0.948476833500794E+00  0.647081352340178E-01
  0.315630987498634E+00  0.976286477818065E+00  0.296684519490736E-01
  0.315630987498634E+00  0.993946875613643E+00  0.756592177256977E-02
  0.315630987498634E+00  0.100000000000000E+01  0.000000000000000E+00
  0.352750971809412E+00  0.000000000000000E+00  0.000000000000000E+00
  0.352750971809412E+00  0.604494922447252E-02  0.784539394251561E-02
  0.352750971809412E+00  0.236777173327253E-01  0.307530583928562E-01
  0.352750971809412E+00  0.514276011986298E-01  0.669944859129141E-01
  0.352750971809412E+00  0.869537974205172E-01  0.114067417888167E+00
  0.352750971809412E+00  0.127171115203571E+00  0.168845406568518E+00
  0.352750971809412E+00  0.168225003578148E+00  0.227073668101058E+00
  0.352750971809412E+00  0.205733380460454E+00  0.282863381510912E+00
  0.352750971809412E+00  0.242163119217158E+00  0.339784575775431E+00
  0.352750971809412E+00  0.278735033771838E+00  0.399752133442527E+00
  0.352750971809412E+00  0.315630987498634E+00  0.462726079465345E+00
  0.352750971809412E+00  0.352750971809412E+00  0.527131271326908E+00
  0.352750971809412E+00  0.389908180431688E+00  0.589241633661506E+00
  0.352750971809412E+00  0.426983171375617E+00  0.642773101341785E+00
  0.352750971809412E+00  0.464000268876714E+00  0.679632431366112E+00
  0.352750971809412E+00  0.501017271733599E+00  0.692427003022631E+00
  0.352750971809412E+00  0.538046091824583E+00  0.678168080245308E+00
  0.352750971809412E+00  0.575073032851187E+00  0.640160290473297E+00
  0.352750971809412E+00  0.612091338824018E+00  0.586048326935971E+00
  0.352750971809412E+00  0.649127649067530E+00  0.523889413751405E+00
  0.352750971809412E+00  0.686263593370906E+00  0.459448493262649E+00
  0.352750971809412E+00  0.723394560214556E+00  0.396186074406871E+00
  0.352750971809412E+00  0.760270532330095E+00  0.335893941906741E+00
  0.352750971809412E+00  0.796825958826392E+00  0.278968997524189E+00
  0.352750971809412E+00  0.833418679216614E+00  0.224689097543770E+00
  0.352750971809412E+00  0.872184802457577E+00  0.169739138376698E+00
  0.352750971809412E+00  0.912817223350814E+00  0.114374248902708E+00
  0.352750971809412E+00  0.948476833500794E+00  0.671199290536161E-01
  0.352750971809412E+00  0.976286477818065E+00  0.307996411430311E-01
  0.352750971809412E+00  0.993946875613643E+00  0.785600612136489E-02
  0.352750971809412E+00  0.100000000000000E+01  0.000000000000000E+00
  0.389908180431688E+00  0.000000000000000E+00  0.000000000000000E+00
  0.389908180431688E+00  0.604494922447252E-02  0.804212667565092E-02
  0.389908180431688E+00  0.236777173327253E-01  0.315186272531618E-01
  0.389908180431688E+00  0.514276011986298E-01  0.686133201828653E-01
  0.389908180431688E+00  0.869537974205172E-01  0.116622679369342E+00
  0.389908180431688E+00  0.127171115203571E+00  0.172083659071741E+00
  0.389908180431688E+00  0.168225003578148E+00  0.230330685638180E+00
  0.389908180431688E+00  0.205733380460454E+00  0.285214488541928E+00
  0.389908180431688E+00  0.242163119217158E+00  0.340025096537029E+00
  0.389908180431688E+00  0.278735033771838E+00  0.396187123004523E+00
  0.389908180431688E+00  0.315630987498634E+00  0.453104335101982E+00
  0.389908180431688E+00  0.352750971809412E+00  0.508852173929216E+00
  0.389908180431688E+00  0.389908180431688E+00  0.560102763462064E+00
  0.389908180431688E+00  0.426983171375617E+00  0.602289514995640E+00
  0.389908180431688E+00  0.464000268876714E+00  0.630305841923934E+00
  0.389908180431688E+00  0.501017271733599E+00  0.639841898054649E+00
  0.389908180431688E+00  0.538046091824583E+00  0.629208324101361E+00
  0.389908180431688E+00  0.575073032851187E+00  0.600272177629373E+00
  0.389908180431688E+00  0.612091338824018E+00  0.557528567987002E+00
  0.389908180431688E+00  0.649127649067530E+00  0.506108745335847E+00
  0.389908180431688E+00  0.686263593370906E+00  0.450198728753350E+00
  0.389908180431688E+00  0.723394560214556E+00  0.392898044976117E+00
  0.389908180431688E+00  0.760270532330095E+00  0.336322183367416E+00
  0.389908180431688E+00  0.796825958826392E+00  0.281417816323832E+00
  0.389908180431688E+00  0.833418679216614E+00  0.227962926610571E+00
  0.389908180431688E+00  0.872184802457577E+00  0.172983816056907E+00
  0.389908180431688E+00  0.912817223350814E+00  0.116934725107568E+00
  0.389908180431688E+00  0.948476833500794E+00  0.687415628065898E-01
  0.389908180431688E+00  0.976286477818065E+00  0.315663520462931E-01
  0.389908180431688E+00  0.993946875613643E+00  0.805300484226584E-02
  0.389908180431688E+00  0.100000000000000E+01  0.000000000000000E+00
  0.426983171375617E+00  0.000000000000000E+00  0.000000000000000E+00
  0.426983171375617E+00  0.604494922447252E-02  0.816531535412401E-02
  0.426983171375617E+00  0.236777173327253E-01  0.319970590244098E-01
  0.426983171375617E+00  0.514276011986298E-01  0.696166959301849E-01
  0.426983171375617E+00  0.869537974205172E-01  0.118171828603826E+00
  0.426983171375617E+00  0.127171115203571E+00  0.173948408817013E+00
  0.426983171375617E+00  0.168225003578148E+00  0.231983656287287E+00
  0.426983171375617E+00  0.205733380460454E+00  0.285967374144877E+00
  0.426983171375617E+00  0.242163119217158E+00  0.338997837525775E+00
  0.426983171375617E+00  0.278735033771838E+00  0.392195312647496E+00
  0.426983171375617E+00  0.315630987498634E+00  0.444678828595640E+00
  0.426983171375617E+00  0.352750971809412E+00  0.494444632953956E+00
  0.426983171375617E+00  0.389908180431688E+00  0.538581494654460E+00
  0.426983171375617E+00  0.426983171375617E+00  0.573663156386932E+00
  0.426983171375617E+00  0.464000268876714E+00  0.596315982453701E+00
  0.426983171375617E+00  0.501017271733599E+00  0.603907860930216E+00
  0.426983171375617E+00  0.538046091824583E+00  0.595438354794362E+00
  0.426983171375617E+00  0.575073032851187E+00  0.572012018116290E+00
  0.426983171375617E+00  0.612091338824018E+00  0.536403661618954E+00
  0.426983171375617E+00  0.649127649067530E+00  0.492036972219244E+00
  0.426983171375617E+00  0.686263593370906E+00  0.442038467245755E+00
  0.426983171375617E+00  0.723394560214556E+00  0.389115995267972E+00
  0.426983171375617E+00  0.760270532330095E+00  0.335447236534652E+00
  0.426983171375617E+00  0.796825958826392E+00  0.282259004202374E+00