 VARIABLES =  $x$  (a)
 ZONE I=         961 ,DATAPACKING=POINT
  0.000000000000000E+00  0.000000000000000E+00  0.254366564737690E-10
  0.000000000000000E+00  0.604494922447252E-02  0.463875954129016E-10
  0.000000000000000E+00  0.236777173327253E-01  0.256697822552314E-09
  0.000000000000000E+00  0.514276011986298E-01  0.334249096289158E-08
  0.000000000000000E+00  0.869537974205172E-01  0.713587146845064E-07
  0.000000000000000E+00  0.127171115203571E+00  0.168294125572307E-05
  0.000000000000000E+00  0.168225003578148E+00  0.303627315013443E-04
  0.000000000000000E+00  0.205733380460454E+00  0.317791785715540E-03
  0.000000000000000E+00  0.242163119217158E+00  0.237486300991600E-02
  0.000000000000000E+00  0.278735033771838E+00  0.136960426983855E-01
  0.000000000000000E+00  0.315630987498634E+00  0.611746071701965E-01
  0.000000000000000E+00  0.352750971809412E+00  0.209494573035808E+00
  0.000000000000000E+00  0.389908180431688E+00  0.545064748058686E+00
  0.000000000000000E+00  0.426983171375617E+00  0.107468163018832E+01
  0.000000000000000E+00  0.464000268876714E+00  0.160893444083332E+01
  0.000000000000000E+00  0.501017271733599E+00  0.183137436079667E+01
  0.000000000000000E+00  0.538046091824583E+00  0.158473892183354E+01
  0.000000000000000E+00  0.575073032851187E+00  0.104245046694538E+01
  0.000000000000000E+00  0.612091338824018E+00  0.521379738547101E+00
  0.000000000000000E+00  0.649127649067530E+00  0.198149122929198E+00
  0.000000000000000E+00  0.686263593370906E+00  0.570263158816305E-01
  0.000000000000000E+00  0.723394560214556E+00  0.124586169951465E-01
  0.000000000000000E+00  0.760270532330095E+00  0.209352754761416E-02
  0.000000000000000E+00  0.796825958826392E+00  0.273175859184498E-03
  0.000000000000000E+00  0.833418679216614E+00  0.272180179573286E-04
  0.000000000000000E+00  0.872184802457577E+00  0.176566612287593E-05
  0.000000000000000E+00  0.912817223350814E+00  0.727209878030240E-07
  0.000000000000000E+00  0.948476833500794E+00  0.337126823437459E-08
  0.000000000000000E+00  0.976286477818065E+00  0.257574862674374E-09
  0.000000000000000E+00  0.993946875613643E+00  0.464250743650127E-10
  0.000000000000000E+00  0.100000000000000E+01  0.254366564737690E-10
  0.604494922447252E-02  0.000000000000000E+00  0.322763618094240E-10
  0.604494922447252E-02  0.604494922447252E-02  0.588608339527621E-10
  0.604494922447252E-02  0.236777173327253E-01  0.325721731743078E-09
  0.604494922447252E-02  0.514276011986298E-01  0.424125897891769E-08
  0.604494922447252E-02  0.869537974205172E-01  0.905464794788458E-07
  0.604494922447252E-02  0.127171115203571E+00  0.213547016015016E-05
  0.604494922447252E-02  0.168225003578148E+00  0.385270174352664E-04
  0.604494922447252E-02  0.205733380460454E+00  0.403243353402011E-03
  0.604494922447252E-02  0.242163119217158E+00  0.301344391842188E-02
  0.604494922447252E-02  0.278735033771838E+00  0.173787946519728E-01
  0.604494922447252E-02  0.315630987498634E+00  0.776239501685606E-01
  0.604494922447252E-02  0.352750971809412E+00  0.265825921083118E+00
  0.604494922447252E-02  0.389908180431688E+00  0.691628124790956E+00
  0.604494922447252E-02  0.426983171375617E+00  0.136365458100476E+01
  0.604494922447252E-02  0.464000268876714E+00  0.204156352834861E+01
  0.604494922447252E-02  0.501017271733599E+00  0.232381569246460E+01
  0.604494922447252E-02  0.538046091824583E+00  0.201086203555575E+01
  0.604494922447252E-02  0.575073032851187E+00  0.132275672607479E+01
  0.604494922447252E-02  0.612091338824018E+00  0.661574413241096E+00
  0.604494922447252E-02  0.649127649067530E+00  0.251429773817877E+00
  0.604494922447252E-02  0.686263593370906E+00  0.723602178592960E-01
  0.604494922447252E-02  0.723394560214556E+00  0.158086354704307E-01
  0.604494922447252E-02  0.760270532330095E+00  0.265645969054431E-02
  0.604494922447252E-02  0.796825958826392E+00  0.346630575356141E-03
  0.604494922447252E-02  0.833418679216614E+00  0.345367165779853E-04
  0.604494922447252E-02  0.872184802457577E+00  0.224043905594885E-05
  0.604494922447252E-02  0.912817223350814E+00  0.922750565071151E-07
  0.604494922447252E-02  0.948476833500794E+00  0.427777421932407E-08
  0.604494922447252E-02  0.976286477818065E+00  0.326834600658459E-09
  0.604494922447252E-02  0.993946875613643E+00  0.589083906833352E-10
  0.604494922447252E-02  0.100000000000000E+01  0.322763618094240E-10
  0.236777173327253E-01  0.000000000000000E+00  0.620063355067233E-10
  0.236777173327253E-01  0.604494922447252E-02  0.113077943537454E-09
  0.236777173327253E-01  0.236777173327253E-01  0.625746207070807E-09
  0.236777173327253E-01  0.514276011986298E-01  0.814791111744466E-08
  0.236777173327253E-01  0.869537974205172E-01  0.173949450023782E-06
  0.236777173327253E-01  0.127171115203571E+00  0.410246607088797E-05
  0.236777173327253E-01  0.168225003578148E+00  0.740145120218284E-04
  0.236777173327253E-01  0.205733380460454E+00  0.774673515234940E-03
  0.236777173327253E-01  0.242163119217158E+00  0.578914735618695E-02
  0.236777173327253E-01  0.278735033771838E+00  0.333865191577459E-01
  0.236777173327253E-01  0.315630987498634E+00  0.149123892151425E+00
  0.236777173327253E-01  0.352750971809412E+00  0.510679962828116E+00
  0.236777173327253E-01  0.389908180431688E+00  0.132869143693736E+01
  0.236777173327253E-01  0.426983171375617E+00  0.261972597668591E+01
  0.236777173327253E-01  0.464000268876714E+00  0.392206140966332E+01
  0.236777173327253E-01  0.501017271733599E+00  0.446429793833444E+01
  0.236777173327253E-01  0.538046091824583E+00  0.386308056560440E+01
  0.236777173327253E-01  0.575073032851187E+00  0.254115683282557E+01
  0.236777173327253E-01  0.612091338824018E+00  0.127095504977619E+01
  0.236777173327253E-01  0.649127649067530E+00  0.483023427602635E+00
  0.236777173327253E-01  0.686263593370906E+00  0.139011700650010E+00
  0.236777173327253E-01  0.723394560214556E+00  0.303700758056566E-01
  0.236777173327253E-01  0.760270532330095E+00  0.510334255776878E-02
  0.236777173327253E-01  0.796825958826392E+00  0.665914327002795E-03
  0.236777173327253E-01  0.833418679216614E+00  0.663487182378123E-04
  0.236777173327253E-01  0.872184802457577E+00  0.430412252179451E-05
  0.236777173327253E-01  0.912817223350814E+00  0.177270230965479E-06
  0.236777173327253E-01  0.948476833500794E+00  0.821806079110107E-08
  0.236777173327253E-01  0.976286477818065E+00  0.627884147020473E-09
  0.236777173327253E-01  0.993946875613643E+00  0.113169305092046E-09
  0.236777173327253E-01  0.100000000000000E+01  0.620063355067233E-10
  0.514276011986298E-01  0.000000000000000E+00  0.152751975880709E-09
  0.514276011986298E-01  0.604494922447252E-02  0.278566362013129E-09
  0.514276011986298E-01  0.236777173327253E-01  0.154151940682837E-08
  0.514276011986298E-01  0.514276011986298E-01  0.200722960374770E-07
  0.514276011986298E-01  0.869537974205172E-01  0.428522698162261E-06
  0.514276011986298E-01  0.127171115203571E+00  0.101063833750304E-04
  0.514276011986298E-01  0.168225003578148E+00  0.182333996401947E-03
  0.514276011986298E-01  0.205733380460454E+00  0.190840031341251E-02
  0.514276011986298E-01  0.242163119217158E+00  0.142615055396437E-01
  0.514276011986298E-01  0.278735033771838E+00  0.822473498465630E-01
  0.514276011986298E-01  0.315630987498634E+00  0.367365189234284E+00
  0.514276011986298E-01  0.352750971809412E+00  0.125805488628212E+01
  0.514276011986298E-01  0.389908180431688E+00  0.327321781991058E+01
  0.514276011986298E-01  0.426983171375617E+00  0.645366825719613E+01
  0.514276011986298E-01  0.464000268876714E+00  0.966195832983214E+01
  0.514276011986298E-01  0.501017271733599E+00  0.109977524946112E+02
  0.514276011986298E-01  0.538046091824583E+00  0.951665962131330E+01
  0.514276011986298E-01  0.575073032851187E+00  0.626011397165669E+01
  0.514276011986298E-01  0.612091338824018E+00  0.313098481828244E+01
  0.514276011986298E-01  0.649127649067530E+00  0.118992329348305E+01
  0.514276011986298E-01  0.686263593370906E+00  0.342453908480438E+00
  0.514276011986298E-01  0.723394560214556E+00  0.748163723763027E-01
  0.514276011986298E-01  0.760270532330095E+00  0.125720324048301E-01
  0.514276011986298E-01  0.796825958826392E+00  0.164047316110013E-02
  0.514276011986298E-01  0.833418679216614E+00  0.163449391504185E-03
  0.514276011986298E-01  0.872184802457577E+00  0.106031619876243E-04
  0.514276011986298E-01  0.912817223350814E+00  0.436703408184323E-06
  0.514276011986298E-01  0.948476833500794E+00  0.202451090439357E-07
  0.514276011986298E-01  0.976286477818065E+00  0.154678620011581E-08
  0.514276011986298E-01  0.993946875613643E+00  0.278791430272193E-09
  0.514276011986298E-01  0.100000000000000E+01  0.152751975880709E-09
  0.869537974205172E-01  0.000000000000000E+00  0.386931204142031E-09
  0.869537974205172E-01  0.604494922447252E-02  0.705627650743985E-09
  0.869537974205172E-01  0.236777173327253E-01  0.390477410752590E-08
  0.869537974205172E-01  0.514276011986298E-01  0.508444989395202E-07
  0.869537974205172E-01  0.869537974205172E-01  0.108547730820585E-05
  0.869537974205172E-01  0.127171115203571E+00  0.256001604318063E-04
  0.869537974205172E-01  0.168225003578148E+00  0.461864485726395E-03
  0.869537974205172E-01  0.205733380460454E+00  0.483410854096186E-02
  0.869537974205172E-01  0.242163119217158E+00  0.361253691123582E-01
  0.869537974205172E-01  0.278735033771838E+00  0.208338163419075E+00
  0.869537974205172E-01  0.315630987498634E+00  0.930561154516883E+00
  0.869537974205172E-01  0.352750971809412E+00  0.318673908615140E+01
  0.869537974205172E-01  0.389908180431688E+00  0.829128464738315E+01
  0.869537974205172E-01  0.426983171375617E+00  0.163475831686802E+02
  0.869537974205172E-01  0.464000268876714E+00  0.244744013907334E+02
  0.869537974205172E-01  0.501017271733599E+00  0.278580593871935E+02
  0.869537974205172E-01  0.538046091824583E+00  0.241063498226714E+02
  0.869537974205172E-01  0.575073032851187E+00  0.158572969230272E+02
  0.869537974205172E-01  0.612091338824018E+00  0.793099872458963E+01
  0.869537974205172E-01  0.649127649067530E+00  0.301415710094391E+01
  0.869537974205172E-01  0.686263593370906E+00  0.867459176272533E+00
  0.869537974205172E-01  0.723394560214556E+00  0.189514989159349E+00
  0.869537974205172E-01  0.760270532330095E+00  0.318458180908409E-01
  0.869537974205172E-01  0.796825958826392E+00  0.415543073618156E-02
  0.869537974205172E-01  0.833418679216614E+00  0.414028489689633E-03
  0.869537974205172E-01  0.872184802457577E+00  0.268585346404193E-04
  0.869537974205172E-01  0.912817223350814E+00  0.110619960630591E-05
  0.869537974205172E-01  0.948476833500794E+00  0.512822461064223E-07
  0.869537974205172E-01  0.976286477818065E+00  0.391811525520619E-08
  0.869537974205172E-01  0.993946875613643E+00  0.706197764040333E-09
  0.869537974205172E-01  0.100000000000000E+01  0.386931204142031E-09
  0.127171115203571E+00  0.000000000000000E+00  0.817120566221984E-09
  0.127171115203571E+00  0.604494922447252E-02  0.149014310385307E-08
  0.127171115203571E+00  0.236777173327253E-01  0.824609438462170E-08
  0.127171115203571E+00  0.514276011986298E-01  0.107373314217077E-06
  0.127171115203571E+00  0.869537974205172E-01  0.229230887353479E-05
  0.127171115203571E+00  0.127171115203571E+00  0.540623691330220E-04
  0.127171115203571E+00  0.168225003578148E+00  0.975364524893800E-03
  0.127171115203571E+00  0.205733380460454E+00  0.102086610381502E-01
  0.127171115203571E+00  0.242163119217158E+00  0.762894844046560E-01
  0.127171115203571E+00  0.278735033771838E+00  0.439968129311571E+00
  0.127171115203571E+00  0.315630987498634E+00  0.196515724072723E+01
  0.127171115203571E+00  0.352750971809412E+00  0.672974941954261E+01
  0.127171115203571E+00  0.389908180431688E+00  0.175095188324239E+02
  0.127171115203571E+00  0.426983171375617E+00  0.345227944196757E+02
  0.127171115203571E+00  0.464000268876714E+00  0.516849933741693E+02
  0.127171115203571E+00  0.501017271733599E+00  0.588305957664595E+02
  0.127171115203571E+00  0.538046091824583E+00  0.509077427867926E+02
  0.127171115203571E+00  0.575073032851187E+00  0.334874088773100E+02
  0.127171115203571E+00  0.612091338824018E+00  0.167486677196592E+02
  0.127171115203571E+00  0.649127649067530E+00  0.636529111800772E+01
  0.127171115203571E+00  0.686263593370906E+00  0.183189860549495E+01
  0.127171115203571E+00  0.723394560214556E+00  0.400217386428717E+00
  0.127171115203571E+00  0.760270532330095E+00  0.672519368601723E-01
  0.127171115203571E+00  0.796825958826392E+00  0.877543056671781E-02
  0.127171115203571E+00  0.833418679216614E+00  0.874344561269970E-03
  0.127171115203571E+00  0.872184802457577E+00  0.567198013453998E-04
  0.127171115203571E+00  0.912817223350814E+00  0.233607018245917E-05
  0.127171115203571E+00  0.948476833500794E+00  0.108297747834866E-06
  0.127171115203571E+00  0.976286477818065E+00  0.827426819440968E-08
  0.127171115203571E+00  0.993946875613643E+00  0.149134706800623E-08
  0.127171115203571E+00  0.100000000000000E+01  0.817120566221984E-09
  0.168225003578148E+00  0.000000000000000E+00  0.125542101089210E-08
  0.168225003578148E+00  0.604494922447252E-02  0.228945034447326E-08
  0.168225003578148E+00  0.236777173327253E-01  0.126692688645914E-07
  0.168225003578148E+00  0.514276011986298E-01  0.164967962194966E-06
  0.168225003578148E+00  0.869537974205172E-01  0.352189486136147E-05
  0.168225003578148E+00  0.127171115203571E+00  0.830612236600618E-04
  0.168225003578148E+00  0.168225003578148E+00  0.149854644277527E-02
  0.168225003578148E+00  0.205733380460454E+00  0.156845490006766E-01
  0.168225003578148E+00  0.242163119217158E+00  0.117210881222284E+00
  0.168225003578148E+00  0.278735033771838E+00  0.675965403997170E+00
  0.168225003578148E+00  0.315630987498634E+00  0.301926030466046E+01
  0.168225003578148E+00  0.352750971809412E+00  0.103395620775962E+02
  0.168225003578148E+00  0.389908180431688E+00  0.269015598695190E+02
  0.168225003578148E+00  0.426983171375617E+00  0.530406934555058E+02
  0.168225003578148E+00  0.464000268876714E+00  0.794086323512310E+02
  0.168225003578148E+00  0.501017271733599E+00  0.903871093956149E+02
  0.168225003578148E+00  0.538046091824583E+00  0.782144674281370E+02
  0.168225003578148E+00  0.575073032851187E+00  0.514499309438366E+02
  0.168225003578148E+00  0.612091338824018E+00  0.257325910384666E+02
  0.168225003578148E+00  0.649127649067530E+00  0.977960969326631E+01
  0.168225003578148E+00  0.686263593370906E+00  0.281452223115080E+01
  0.168225003578148E+00  0.723394560214556E+00  0.614892509889953E+00
  0.168225003578148E+00  0.760270532330095E+00  0.103325626654846E+00
  0.168225003578148E+00  0.796825958826392E+00  0.134825390138197E-01
  0.168225003578148E+00  0.833418679216614E+00  0.134333974489557E-02
  0.168225003578148E+00  0.872184802457577E+00  0.871440926666097E-04
  0.168225003578148E+00  0.912817223350814E+00  0.358912957427762E-05
  0.168225003578148E+00  0.948476833500794E+00  0.166388258580743E-06
  0.168225003578148E+00  0.976286477818065E+00  0.127125550015788E-07
  0.168225003578148E+00  0.993946875613643E+00  0.229130011053805E-08
  0.168225003578148E+00  0.100000000000000E+01  0.125542101089210E-08
  0.205733380460454E+00  0.000000000000000E+00  0.138423668505068E-08
  0.205733380460454E+00  0.604494922447252E-02  0.252436523518895E-08
  0.205733380460454E+00  0.236777173327253E-01  0.139692315032036E-07
  0.205733380460454E+00  0.514276011986298E-01  0.181894920625913E-06
  0.205733380460454E+00  0.869537974205172E-01  0.388326786447815E-05
  0.205733380460454E+00  0.127171115203571E+00  0.915839323206435E-04
  0.205733380460454E+00  0.168225003578148E+00  0.165230862184446E-02
  0.205733380460454E+00  0.205733380460454E+00  0.172939021466460E-01
  0.205733380460454E+00  0.242163119217158E+00  0.129237602579002E+00
  0.205733380460454E+00  0.278735033771838E+00  0.745324557992759E+00
  0.205733380460454E+00  0.315630987498634E+00  0.332905920736376E+01
  0.205733380460454E+00  0.352750971809412E+00  0.114004792105534E+02
  0.205733380460454E+00  0.389908180431688E+00  0.296618630191745E+02
  0.205733380460454E+00  0.426983171375617E+00  0.584830690618004E+02
  0.205733380460454E+00  0.464000268876714E+00  0.875565575664262E+02
  0.205733380460454E+00  0.501017271733599E+00  0.996615092431740E+02
  0.205733380460454E+00  0.538046091824583E+00  0.862398623062659E+02
  0.205733380460454E+00  0.575073032851187E+00  0.567290823061613E+02
  0.205733380460454E+00  0.612091338824018E+00  0.283729491603298E+02
  0.205733380460454E+00  0.649127649067530E+00  0.107830714839452E+02
  0.205733380460454E+00  0.686263593370906E+00  0.310331346173753E+01
  0.205733380460454E+00  0.723394560214556E+00  0.677985123849188E+00
  0.205733380460454E+00  0.760270532330095E+00  0.113927616059136E+00
  0.205733380460454E+00  0.796825958826392E+00  0.148659493099404E-01
  0.205733380460454E+00  0.833418679216614E+00  0.148117654495020E-02
  0.205733380460454E+00  0.872184802457577E+00  0.960857345129642E-04
  0.205733380460454E+00  0.912817223350814E+00  0.395740136656225E-05
  0.205733380460454E+00  0.948476833500794E+00  0.183460950144123E-06
  0.205733380460454E+00  0.976286477818065E+00  0.140169591246567E-07
  0.205733380460454E+00  0.993946875613643E+00  0.252640480121775E-08
  0.205733380460454E+00  0.100000000000000E+01  0.138423668505068E-08
  0.242163119217158E+00  0.000000000000000E+00  0.116260498109759E-08
  0.242163119217158E+00  0.604494922447252E-02  0.212018625733274E-08
  0.242163119217158E+00  0.236777173327253E-01  0.117326020203946E-07
  0.242163119217158E+00  0.514276011986298E-01  0.152771518801567E-06
  0.242163119217158E+00  0.869537974205172E-01  0.326151344703975E-05
  0.242163119217158E+00  0.127171115203571E+00  0.769203251542104E-04
  0.242163119217158E+00  0.168225003578148E+00  0.138775561637173E-02
  0.242163119217158E+00  0.205733380460454E+00  0.145249558803369E-01
  0.242163119217158E+00  0.242163119217158E+00  0.108545223606726E+00
  0.242163119217158E+00  0.278735033771838E+00  0.625989798576259E+00
  0.242163119217158E+00  0.315630987498634E+00  0.279603976592211E+01
  0.242163119217158E+00  0.352750971809412E+00  0.957513556766026E+01
  0.242163119217158E+00  0.389908180431688E+00  0.249126685249381E+02
  0.242163119217158E+00  0.426983171375617E+00  0.491192786142886E+02
  0.242163119217158E+00  0.464000268876714E+00  0.735377779348178E+02
  0.242163119217158E+00  0.501017271733599E+00  0.837045920839583E+02
  0.242163119217158E+00  0.538046091824583E+00  0.724319002445484E+02
  0.242163119217158E+00  0.575073032851187E+00  0.476461246653232E+02
  0.242163119217158E+00  0.612091338824018E+00  0.238301241243440E+02
  0.242163119217158E+00  0.649127649067530E+00  0.905658169166870E+01
  0.242163119217158E+00  0.686263593370906E+00  0.260643842739305E+01
  0.242163119217158E+00  0.723394560214556E+00  0.569432157527508E+00
  0.242163119217158E+00  0.760270532330095E+00  0.956865363744320E-01
  0.242163119217158E+00  0.796825958826392E+00  0.124857453231333E-01
  0.242163119217158E+00  0.833418679216614E+00  0.124402369019787E-02
  0.242163119217158E+00  0.872184802457577E+00  0.807013386970762E-04
  0.242163119217158E+00  0.912817223350814E+00  0.332377735011353E-05
  0.242163119217158E+00  0.948476833500794E+00  0.154086809559339E-06
  0.242163119217158E+00  0.976286477818065E+00  0.117726879183025E-07
  0.242163119217158E+00  0.993946875613643E+00  0.212189926613387E-08
  0.242163119217158E+00  0.100000000000000E+01  0.116260498109759E-08
  0.278735033771838E+00  0.000000000000000E+00  0.747153570957367E-09
  0.278735033771838E+00  0.604494922447252E-02  0.136254769162040E-08
  0.278735033771838E+00  0.236777173327253E-01  0.754001198918278E-08
  0.278735033771838E+00  0.514276011986298E-01  0.981793366353986E-07
  0.278735033771838E+00  0.869537974205172E-01  0.209602698964927E-05
  0.278735033771838E+00  0.127171115203571E+00  0.494332095187765E-04
  0.278735033771838E+00  0.168225003578148E+00  0.891847687947632E-03
  0.278735033771838E+00  0.205733380460454E+00  0.933453135883393E-02
  0.278735033771838E+00  0.242163119217158E+00  0.697570995709710E-01
  0.278735033771838E+00  0.278735033771838E+00  0.402295294612948E+00
  0.278735033771838E+00  0.315630987498634E+00  0.179688813450229E+01
  0.278735033771838E+00  0.352750971809412E+00  0.615350600427005E+01
  0.278735033771838E+00  0.389908180431688E+00  0.160102438516237E+02
  0.278735033771838E+00  0.426983171375617E+00  0.315667359216614E+02
  0.278735033771838E+00  0.464000268876714E+00  0.472593996048407E+02
  0.278735033771838E+00  0.501017271733599E+00  0.537931506383335E+02
  0.278735033771838E+00  0.538046091824583E+00  0.465487020947140E+02
  0.278735033771838E+00  0.575073032851187E+00  0.306200065927535E+02
  0.278735033771838E+00  0.612091338824018E+00  0.153145415900867E+02
  0.278735033771838E+00  0.649127649067530E+00  0.582025491169766E+01
  0.278735033771838E+00  0.686263593370906E+00  0.167503994062431E+01
  0.278735033771838E+00  0.723394560214556E+00  0.365948260012593E+00
  0.278735033771838E+00  0.760270532330095E+00  0.614934036126395E-01
  0.278735033771838E+00  0.796825958826392E+00  0.802402308257462E-02
  0.278735033771838E+00  0.833418679216614E+00  0.799477688121903E-03
  0.278735033771838E+00  0.872184802457577E+00  0.518630956936349E-04
  0.278735033771838E+00  0.912817223350814E+00  0.213604118043608E-05
  0.278735033771838E+00  0.948476833500794E+00  0.990246144404089E-07
  0.278735033771838E+00  0.976286477818065E+00  0.756577338041535E-08
  0.278735033771838E+00  0.993946875613643E+00  0.136364856480059E-08
  0.278735033771838E+00  0.100000000000000E+01  0.747153570957367E-09
  0.315630987498634E+00  0.000000000000000E+00  0.364723223871658E-09
  0.315630987498634E+00  0.604494922447252E-02  0.665128035364811E-09
  0.315630987498634E+00  0.236777173327253E-01  0.368065895369001E-08
  0.315630987498634E+00  0.514276011986298E-01  0.479262705381446E-07
  0.315630987498634E+00  0.869537974205172E-01  0.102317615909582E-05
  0.315630987498634E+00  0.127171115203571E+00  0.241308350021125E-04
  0.315630987498634E+00  0.168225003578148E+00  0.435355697402276E-03
  0.315630987498634E+00  0.205733380460454E+00  0.455665408406281E-02
  0.315630987498634E+00  0.242163119217158E+00  0.340519475947369E-01
  0.315630987498634E+00  0.278735033771838E+00  0.196380560172690E+00
  0.315630987498634E+00  0.315630987498634E+00  0.877151443594988E+00
  0.315630987498634E+00  0.352750971809412E+00  0.300383567077811E+01
  0.315630987498634E+00  0.389908180431688E+00  0.781540499773477E+01
  0.315630987498634E+00  0.426983171375617E+00  0.154093109368416E+02
  0.315630987498634E+00  0.464000268876714E+00  0.230696890868504E+02
  0.315630987498634E+00  0.501017271733599E+00  0.262591414746062E+02
  0.315630987498634E+00  0.538046091824583E+00  0.227227618992324E+02
  0.315630987498634E+00  0.575073032851187E+00  0.149471647511108E+02
  0.315630987498634E+00  0.612091338824018E+00  0.747579774489458E+01
  0.315630987498634E+00  0.649127649067530E+00  0.284115905707202E+01
  0.315630987498634E+00  0.686263593370906E+00  0.817671213798091E+00
  0.315630987498634E+00  0.723394560214556E+00  0.178637745103721E+00
  0.315630987498634E+00  0.760270532330095E+00  0.300180221098384E-01
  0.315630987498634E+00  0.796825958826392E+00  0.391692910380831E-02
  0.315630987498634E+00  0.833418679216614E+00  0.390265256246655E-03
  0.315630987498634E+00  0.872184802457577E+00  0.253169846155043E-04
  0.315630987498634E+00  0.912817223350814E+00  0.104270909747913E-05
  0.315630987498634E+00  0.948476833500794E+00  0.483388931342131E-07
  0.315630987498634E+00  0.976286477818065E+00  0.369323438399909E-08
  0.315630987498634E+00  0.993946875613643E+00  0.665665426914503E-09
  0.315630987498634E+00  0.100000000000000E+01  0.364723223871658E-09
  0.352750971809412E+00  0.000000000000000E+00  0.134680510429906E-09
  0.352750971809412E+00  0.604494922447252E-02  0.245610307874704E-09
  0.352750971809412E+00  0.236777173327253E-01  0.135914851086041E-08
  0.352750971809412E+00  0.514276011986298E-01  0.176976242712485E-07
  0.352750971809412E+00  0.869537974205172E-01  0.377825919347616E-06
  0.352750971809412E+00  0.127171115203571E+00  0.891073823236424E-05
  0.352750971809412E+00  0.168225003578148E+00  0.160762802330730E-03
  0.352750971809412E+00  0.205733380460454E+00  0.168262522846651E-02
  0.352750971809412E+00  0.242163119217158E+00  0.125742847809586E-01
  0.352750971809412E+00  0.278735033771838E+00  0.725170001564680E-01
  0.352750971809412E+00  0.315630987498634E+00  0.323903706744136E+00
  0.352750971809412E+00  0.352750971809412E+00  0.110921952568151E+01
  0.352750971809412E+00  0.389908180431688E+00  0.288597672267161E+01
  0.352750971809412E+00  0.426983171375617E+00  0.569016099473072E+01
  0.352750971809412E+00  0.464000268876714E+00  0.851889130802802E+01
  0.352750971809412E+00  0.501017271733599E+00  0.969665309411597E+01
  0.352750971809412E+00  0.538046091824583E+00  0.839078229919003E+01
  0.352750971809412E+00  0.575073032851187E+00  0.551950533006878E+01
  0.352750971809412E+00  0.612091338824018E+00  0.276057072940174E+01
  0.352750971809412E+00  0.649127649067530E+00  0.104914830472561E+01
  0.352750971809412E+00  0.686263593370906E+00  0.301939578371677E+00
  0.352750971809412E+00  0.723394560214556E+00  0.659651514296840E-01
  0.352750971809412E+00  0.760270532330095E+00  0.110846863463563E-01
  0.352750971809412E+00  0.796825958826392E+00  0.144639544863282E-02
  0.352750971809412E+00  0.833418679216614E+00  0.144112358287480E-03
  0.352750971809412E+00  0.872184802457577E+00  0.934874498631332E-05
  0.352750971809412E+00  0.912817223350814E+00  0.385038802815071E-06
  0.352750971809412E+00  0.948476833500794E+00  0.178499924732607E-07
  0.352750971809412E+00  0.976286477818065E+00  0.136379221123936E-08
  0.352750971809412E+00  0.993946875613643E+00  0.245808749222764E-09
  0.352750971809412E+00  0.100000000000000E+01  0.134680510429906E-09
  0.389908180431688E+00  0.000000000000000E+00  0.377008044623464E-10
  0.389908180431688E+00  0.604494922447252E-02  0.687531266518338E-10
  0.389908180431688E+00  0.236777173327253E-01  0.380463305935462E-09
  0.389908180431688E+00  0.514276011986298E-01  0.495405511880400E-08
  0.389908180431688E+00  0.869537974205172E-01  0.105763937637764E-06
  0.389908180431688E+00  0.127171115203571E+00  0.249436238874635E-05
  0.389908180431688E+00  0.168225003578148E+00  0.450019602401497E-04
  0.389908180431688E+00  0.205733380460454E+00  0.471013396959482E-03
  0.389908180431688E+00  0.242163119217158E+00  0.351989051918170E-02
  0.389908180431688E+00  0.278735033771838E+00  0.202995164955053E-01
  0.389908180431688E+00  0.315630987498634E+00  0.906696171080020E-01
  0.389908180431688E+00  0.352750971809412E+00  0.310501261912721E+00
  0.389908180431688E+00  0.389908180431688E+00  0.807864803578630E+00
  0.389908180431688E+00  0.426983171375617E+00  0.159283363522194E+01
  0.389908180431688E+00  0.464000268876714E+00  0.238467358354049E+01
  0.389908180431688E+00  0.501017271733599E+00  0.271436172222359E+01
  0.389908180431688E+00  0.538046091824583E+00  0.234881232435273E+01
  0.389908180431688E+00  0.575073032851187E+00  0.154506238886065E+01
  0.389908180431688E+00  0.612091338824018E+00  0.772760193300707E+00
  0.389908180431688E+00  0.649127649067530E+00  0.293685663665849E+00
  0.389908180431688E+00  0.686263593370906E+00  0.845212493425938E-01
  0.389908180431688E+00  0.723394560214556E+00  0.184654726020949E-01
  0.389908180431688E+00  0.760270532330095E+00  0.310291066715191E-02
  0.389908180431688E+00  0.796825958826392E+00  0.404886139873326E-03
  0.389908180431688E+00  0.833418679216614E+00  0.403410398658354E-04
  0.389908180431688E+00  0.872184802457577E+00  0.261697260852582E-05
  0.389908180431688E+00  0.912817223350814E+00  0.107783023460561E-06
  0.389908180431688E+00  0.948476833500794E+00  0.499670719795049E-08
  0.389908180431688E+00  0.976286477818065E+00  0.381763206265580E-09
  0.389908180431688E+00  0.993946875613643E+00  0.688086758804224E-10
  0.389908180431688E+00  0.100000000000000E+01  0.377008044623464E-10
  0.426983171375617E+00  0.000000000000000E+00  0.803825362678110E-11
  0.426983171375617E+00  0.604494922447252E-02  0.146589728665765E-10
  0.426983171375617E+00  0.236777173327253E-01  0.811192384992015E-10
  0.426983171375617E+00  0.514276011986298E-01  0.105626264728042E-08
  0.426983171375617E+00  0.869537974205172E-01  0.225501117926672E-07
  0.426983171375617E+00  0.127171115203571E+00  0.531827312541085E-06
  0.426983171375617E+00  0.168225003578148E+00  0.959494565888973E-05
  0.426983171375617E+00  0.205733380460454E+00  0.100425579781816E-03
  0.426983171375617E+00  0.242163119217158E+00  0.750481936265921E-03
  0.426983171375617E+00  0.278735033771838E+00  0.432809496823512E-02
  0.426983171375617E+00  0.315630987498634E+00  0.193318256453960E-01
  0.426983171375617E+00  0.352750971809412E+00  0.662025102722357E-01
  0.426983171375617E+00  0.389908180431688E+00  0.172246249912264E+00
  0.426983171375617E+00  0.426983171375617E+00  0.339610810108023E+00
  0.426983171375617E+00  0.464000268876714E+00  0.508440372956178E+00
  0.426983171375617E+00  0.501017271733599E+00  0.578733750359383E+00
  0.426983171375617E+00  0.538046091824583E+00  0.500794331954194E+00
  0.426983171375617E+00  0.575073032851187E+00  0.329425420172828E+00
  0.426983171375617E+00  0.612091338824018E+00  0.164761535331038E+00
  0.426983171375617E+00  0.649127649067530E+00  0.626172275303405E-01
  0.426983171375617E+00  0.686263593370906E+00  0.180209215362161E-01
  0.426983171375617E+00  0.723394560214556E+00  0.393705530242093E-02
  0.426983171375617E+00  0.760270532330095E+00  0.661576941911736E-03
  0.426983171375617E+00  0.796825958826392E+00  0.863264731000805E-04