 VARIABLES =  $x$  (b)
 ZONE I=         961 ,DATAPACKING=POINT
  0.000000000000000E+00  0.000000000000000E+00  0.000000000000000E+00
  0.000000000000000E+00  0.604494922447252E-02  0.000000000000000E+00
  0.000000000000000E+00  0.236777173327253E-01  0.000000000000000E+00
  0.000000000000000E+00  0.514276011986298E-01  0.000000000000000E+00
  0.000000000000000E+00  0.869537974205172E-01  0.000000000000000E+00
  0.000000000000000E+00  0.127171115203571E+00  0.000000000000000E+00
  0.000000000000000E+00  0.168225003578148E+00  0.000000000000000E+00
  0.000000000000000E+00  0.205733380460454E+00  0.000000000000000E+00
  0.000000000000000E+00  0.242163119217158E+00  0.000000000000000E+00
  0.000000000000000E+00  0.278735033771838E+00  0.000000000000000E+00
  0.000000000000000E+00  0.315630987498634E+00  0.000000000000000E+00
  0.000000000000000E+00  0.352750971809412E+00  0.000000000000000E+00
  0.000000000000000E+00  0.389908180431688E+00  0.000000000000000E+00
  0.000000000000000E+00  0.426983171375617E+00  0.000000000000000E+00
  0.000000000000000E+00  0.464000268876714E+00  0.000000000000000E+00
  0.000000000000000E+00  0.501017271733599E+00  0.000000000000000E+00
  0.000000000000000E+00  0.538046091824583E+00  0.000000000000000E+00
  0.000000000000000E+00  0.575073032851187E+00  0.000000000000000E+00
  0.000000000000000E+00  0.612091338824018E+00  0.000000000000000E+00
  0.000000000000000E+00  0.649127649067530E+00  0.000000000000000E+00
  0.000000000000000E+00  0.686263593370906E+00  0.000000000000000E+00
  0.000000000000000E+00  0.723394560214556E+00  0.000000000000000E+00
  0.000000000000000E+00  0.760270532330095E+00  0.000000000000000E+00
  0.000000000000000E+00  0.796825958826392E+00  0.000000000000000E+00
  0.000000000000000E+00  0.833418679216614E+00  0.000000000000000E+00
  0.000000000000000E+00  0.872184802457577E+00  0.000000000000000E+00
  0.000000000000000E+00  0.912817223350814E+00  0.000000000000000E+00
  0.000000000000000E+00  0.948476833500794E+00  0.000000000000000E+00
  0.000000000000000E+00  0.976286477818065E+00  0.000000000000000E+00
  0.000000000000000E+00  0.993946875613643E+00  0.000000000000000E+00
  0.000000000000000E+00  0.100000000000000E+01  0.000000000000000E+00
  0.604494922447252E-02  0.000000000000000E+00  0.000000000000000E+00
  0.604494922447252E-02  0.604494922447252E-02 -0.205845551945392E-03
  0.604494922447252E-02  0.236777173327253E-01 -0.807954891816718E-03
  0.604494922447252E-02  0.514276011986298E-01 -0.176938848537326E-02
  0.604494922447252E-02  0.869537974205172E-01 -0.305071998118108E-02
  0.604494922447252E-02  0.127171115203571E+00 -0.461848380086516E-02
  0.604494922447252E-02  0.168225003578148E+00 -0.641718266610967E-02
  0.604494922447252E-02  0.205733380460454E+00 -0.831058719730813E-02
  0.604494922447252E-02  0.242163119217158E+00 -0.104555044688080E-01
  0.604494922447252E-02  0.278735033771838E+00 -0.129897027886296E-01
  0.604494922447252E-02  0.315630987498634E+00 -0.159924068498756E-01
  0.604494922447252E-02  0.352750971809412E+00 -0.194502448223784E-01
  0.604494922447252E-02  0.389908180431688E+00 -0.231585788676641E-01
  0.604494922447252E-02  0.426983171375617E+00 -0.266365731178508E-01
  0.604494922447252E-02  0.464000268876714E+00 -0.291727841514818E-01
  0.604494922447252E-02  0.501017271733599E+00 -0.300785094832521E-01
  0.604494922447252E-02  0.538046091824583E+00 -0.290699371264472E-01
  0.604494922447252E-02  0.575073032851187E+00 -0.264610451018551E-01
  0.604494922447252E-02  0.612091338824018E+00 -0.229591719087971E-01
  0.604494922447252E-02  0.649127649067530E+00 -0.192666968919782E-01
  0.604494922447252E-02  0.686263593370906E+00 -0.158270294948156E-01
  0.604494922447252E-02  0.723394560214556E+00 -0.128304422241937E-01
  0.604494922447252E-02  0.760270532330095E+00 -0.103012392464560E-01
  0.604494922447252E-02  0.796825958826392E+00 -0.817215757659744E-02
  0.604494922447252E-02  0.833418679216614E+00 -0.634026387809900E-02
  0.604494922447252E-02  0.872184802457577E+00 -0.464494863206366E-02
  0.604494922447252E-02  0.912817223350814E+00 -0.305924011324357E-02
  0.604494922447252E-02  0.948476833500794E+00 -0.177274553480744E-02
  0.604494922447252E-02  0.976286477818065E+00 -0.809182080405411E-03
  0.604494922447252E-02  0.993946875613643E+00 -0.206124017301665E-03
  0.604494922447252E-02  0.100000000000000E+01  0.000000000000000E+00
  0.236777173327253E-01  0.000000000000000E+00  0.000000000000000E+00
  0.236777173327253E-01  0.604494922447252E-02 -0.804619920155318E-03
  0.236777173327253E-01  0.236777173327253E-01 -0.315815874317469E-02
  0.236777173327253E-01  0.514276011986298E-01 -0.691608580025237E-02
  0.236777173327253E-01  0.869537974205172E-01 -0.119238767451232E-01
  0.236777173327253E-01  0.127171115203571E+00 -0.180500751261858E-01
  0.236777173327253E-01  0.168225003578148E+00 -0.250774043455305E-01
  0.236777173327253E-01  0.205733380460454E+00 -0.324742211881735E-01
  0.236777173327253E-01  0.242163119217158E+00 -0.408549408310066E-01
  0.236777173327253E-01  0.278735033771838E+00 -0.507615488887468E-01
  0.236777173327253E-01  0.315630987498634E+00 -0.625096042643607E-01
  0.236777173327253E-01  0.352750971809412E+00 -0.760524677223687E-01
  0.236777173327253E-01  0.389908180431688E+00 -0.905896697880777E-01
  0.236777173327253E-01  0.426983171375617E+00 -0.104231266620532E+00
  0.236777173327253E-01  0.464000268876714E+00 -0.114180729045744E+00
  0.236777173327253E-01  0.501017271733599E+00 -0.117733886937818E+00
  0.236777173327253E-01  0.538046091824583E+00 -0.113777258022762E+00
  0.236777173327253E-01  0.575073032851187E+00 -0.103542706344734E+00
  0.236777173327253E-01  0.612091338824018E+00 -0.898077095207496E-01
  0.236777173327253E-01  0.649127649067530E+00 -0.753332477784661E-01
  0.236777173327253E-01  0.686263593370906E+00 -0.618622607091138E-01
  0.236777173327253E-01  0.723394560214556E+00 -0.501387642909167E-01
  0.236777173327253E-01  0.760270532330095E+00 -0.402520915881125E-01
  0.236777173327253E-01  0.796825958826392E+00 -0.319334146669683E-01
  0.236777173327253E-01  0.833418679216614E+00 -0.247769092533037E-01
  0.236777173327253E-01  0.872184802457577E+00 -0.181534791010326E-01
  0.236777173327253E-01  0.912817223350814E+00 -0.119571732541944E-01
  0.236777173327253E-01  0.948476833500794E+00 -0.692920691826021E-02
  0.236777173327253E-01  0.976286477818065E+00 -0.316295555537641E-02
  0.236777173327253E-01  0.993946875613643E+00 -0.805708399120162E-03
  0.236777173327253E-01  0.100000000000000E+01  0.000000000000000E+00
  0.514276011986298E-01  0.000000000000000E+00  0.000000000000000E+00
  0.514276011986298E-01  0.604494922447252E-02 -0.173334085289575E-02
  0.514276011986298E-01  0.236777173327253E-01 -0.680326336988115E-02
  0.514276011986298E-01  0.514276011986298E-01 -0.148972060904385E-01
  0.514276011986298E-01  0.869537974205172E-01 -0.256786984139307E-01
  0.514276011986298E-01  0.127171115203571E+00 -0.388588690790643E-01
  0.514276011986298E-01  0.168225003578148E+00 -0.539663263020583E-01
  0.514276011986298E-01  0.205733380460454E+00 -0.698627863569656E-01
  0.514276011986298E-01  0.242163119217158E+00 -0.878848016952475E-01
  0.514276011986298E-01  0.278735033771838E+00 -0.109234684487397E+00
  0.514276011986298E-01  0.315630987498634E+00 -0.134664560910656E+00
  0.514276011986298E-01  0.352750971809412E+00 -0.164177558525336E+00
  0.514276011986298E-01  0.389908180431688E+00 -0.196119284146894E+00
  0.514276011986298E-01  0.426983171375617E+00 -0.226336773326379E+00
  0.514276011986298E-01  0.464000268876714E+00 -0.248514996285695E+00
  0.514276011986298E-01  0.501017271733599E+00 -0.256461952091921E+00
  0.514276011986298E-01  0.538046091824583E+00 -0.247613461636887E+00
  0.514276011986298E-01  0.575073032851187E+00 -0.224806129592133E+00
  0.514276011986298E-01  0.612091338824018E+00 -0.194394189018806E+00
  0.514276011986298E-01  0.649127649067530E+00 -0.162604378193489E+00
  0.514276011986298E-01  0.686263593370906E+00 -0.133259456769859E+00
  0.514276011986298E-01  0.723394560214556E+00 -0.107890360113169E+00
  0.514276011986298E-01  0.760270532330095E+00 -0.865875538815325E-01
  0.514276011986298E-01  0.796825958826392E+00 -0.687004483281736E-01
  0.514276011986298E-01  0.833418679216614E+00 -0.533204930842331E-01
  0.514276011986298E-01  0.872184802457577E+00 -0.390812475139822E-01
  0.514276011986298E-01  0.912817223350814E+00 -0.257503623242148E-01
  0.514276011986298E-01  0.948476833500794E+00 -0.149254625977627E-01
  0.514276011986298E-01  0.976286477818065E+00 -0.681359608145910E-02
  0.514276011986298E-01  0.993946875613643E+00 -0.173568568447824E-02
  0.514276011986298E-01  0.100000000000000E+01  0.000000000000000E+00
  0.869537974205172E-01  0.000000000000000E+00  0.000000000000000E+00
  0.869537974205172E-01  0.604494922447252E-02 -0.287487913715449E-02
  0.869537974205172E-01  0.236777173327253E-01 -0.112831158097470E-01
  0.869537974205172E-01  0.514276011986298E-01 -0.247014464896958E-01
  0.869537974205172E-01  0.869537974205172E-01 -0.425572489929678E-01
  0.869537974205172E-01  0.127171115203571E+00 -0.643475865196140E-01
  0.869537974205172E-01  0.168225003578148E+00 -0.892737338731145E-01
  0.869537974205172E-01  0.205733380460454E+00 -0.115469171546290E+00
  0.869537974205172E-01  0.242163119217158E+00 -0.145188796681865E+00
  0.869537974205172E-01  0.278735033771838E+00 -0.180540999300408E+00
  0.869537974205172E-01  0.315630987498634E+00 -0.223030658301983E+00
  0.869537974205172E-01  0.352750971809412E+00 -0.273058153977092E+00
  0.869537974205172E-01  0.389908180431688E+00 -0.328184870043571E+00
  0.869537974205172E-01  0.426983171375617E+00 -0.381275146189190E+00
  0.869537974205172E-01  0.464000268876714E+00 -0.420787622274257E+00
  0.869537974205172E-01  0.501017271733599E+00 -0.435051620639135E+00
  0.869537974205172E-01  0.538046091824583E+00 -0.419172894780272E+00
  0.869537974205172E-01  0.575073032851187E+00 -0.378564769536202E+00
  0.869537974205172E-01  0.612091338824018E+00 -0.325181137251109E+00
  0.869537974205172E-01  0.649127649067530E+00 -0.270369891928237E+00
  0.869537974205172E-01  0.686263593370906E+00 -0.220669262197551E+00
  0.869537974205172E-01  0.723394560214556E+00 -0.178307862352562E+00
  0.869537974205172E-01  0.760270532330095E+00 -0.143047043271486E+00
  0.869537974205172E-01  0.796825958826392E+00 -0.113553947572078E+00
  0.869537974205172E-01  0.833418679216614E+00 -0.882090283752163E-01
  0.869537974205172E-01  0.872184802457577E+00 -0.647148569970025E-01
  0.869537974205172E-01  0.912817223350814E+00 -0.426758472439546E-01
  0.869537974205172E-01  0.948476833500794E+00 -0.247482740396514E-01
  0.869537974205172E-01  0.976286477818065E+00 -0.113002504140189E-01
  0.869537974205172E-01  0.993946875613643E+00 -0.287876819198439E-02
  0.869537974205172E-01  0.100000000000000E+01  0.000000000000000E+00
  0.127171115203571E+00  0.000000000000000E+00  0.000000000000000E+00
  0.127171115203571E+00  0.604494922447252E-02 -0.406683650712470E-02
  0.127171115203571E+00  0.236777173327253E-01 -0.159596310218313E-01
  0.127171115203571E+00  0.514276011986298E-01 -0.349256526425765E-01
  0.127171115203571E+00  0.869537974205172E-01 -0.601167967495117E-01
  0.127171115203571E+00  0.127171115203571E+00 -0.907562896891951E-01
  0.127171115203571E+00  0.168225003578148E+00 -0.125656419063501E+00
  0.127171115203571E+00  0.205733380460454E+00 -0.162203125751868E+00
  0.127171115203571E+00  0.242163119217158E+00 -0.203619105629198E+00
  0.127171115203571E+00  0.278735033771838E+00 -0.253042525939730E+00
  0.127171115203571E+00  0.315630987498634E+00 -0.313022361258179E+00
  0.127171115203571E+00  0.352750971809412E+00 -0.384834964463365E+00
  0.127171115203571E+00  0.389908180431688E+00 -0.465665386713150E+00
  0.127171115203571E+00  0.426983171375617E+00 -0.545153346747975E+00
  0.127171115203571E+00  0.464000268876714E+00 -0.605269243995287E+00
  0.127171115203571E+00  0.501017271733599E+00 -0.627155526424539E+00
  0.127171115203571E+00  0.538046091824583E+00 -0.602797619247196E+00
  0.127171115203571E+00  0.575073032851187E+00 -0.541058476122486E+00
  0.127171115203571E+00  0.612091338824018E+00 -0.461215166542009E+00
  0.127171115203571E+00  0.649127649067530E+00 -0.380939325729032E+00
  0.127171115203571E+00  0.686263593370906E+00 -0.309666812338885E+00
  0.127171115203571E+00  0.723394560214556E+00 -0.249910517436253E+00
  0.127171115203571E+00  0.760270532330095E+00 -0.200632808456383E+00
  0.127171115203571E+00  0.796825958826392E+00 -0.159533887708770E+00
  0.127171115203571E+00  0.833418679216614E+00 -0.124168604828703E+00
  0.127171115203571E+00  0.872184802457577E+00 -0.912716440300651E-01
  0.127171115203571E+00  0.912817223350814E+00 -0.602838836813161E-01
  0.127171115203571E+00  0.948476833500794E+00 -0.349917974848444E-01
  0.127171115203571E+00  0.976286477818065E+00 -0.159838622323012E-01
  0.127171115203571E+00  0.993946875613643E+00 -0.407233794974044E-02
  0.127171115203571E+00  0.100000000000000E+01  0.000000000000000E+00
  0.168225003578148E+00  0.000000000000000E+00  0.000000000000000E+00
  0.168225003578148E+00  0.604494922447252E-02 -0.513814073586136E-02
  0.168225003578148E+00  0.236777173327253E-01 -0.201608668907375E-01
  0.168225003578148E+00  0.514276011986298E-01 -0.440941093743248E-01
  0.168225003578148E+00  0.869537974205172E-01 -0.757951919006924E-01
  0.168225003578148E+00  0.127171115203571E+00 -0.114154752988599E+00
  0.168225003578148E+00  0.168225003578148E+00 -0.157537269898808E+00
  0.168225003578148E+00  0.205733380460454E+00 -0.202629527273492E+00
  0.168225003578148E+00  0.242163119217158E+00 -0.253424895532069E+00
  0.168225003578148E+00  0.278735033771838E+00 -0.313865447958701E+00
  0.168225003578148E+00  0.315630987498634E+00 -0.387370140295685E+00
  0.168225003578148E+00  0.352750971809412E+00 -0.476072783921730E+00
  0.168225003578148E+00  0.389908180431688E+00 -0.577110070456650E+00
  0.168225003578148E+00  0.426983171375617E+00 -0.677707424768640E+00
  0.168225003578148E+00  0.464000268876714E+00 -0.754526741556369E+00
  0.168225003578148E+00  0.501017271733599E+00 -0.782637468329082E+00
  0.168225003578148E+00  0.538046091824583E+00 -0.751356814865639E+00
  0.168225003578148E+00  0.575073032851187E+00 -0.672496924510150E+00
  0.168225003578148E+00  0.612091338824018E+00 -0.571513440351130E+00
  0.168225003578148E+00  0.649127649067530E+00 -0.471236259584224E+00
  0.168225003578148E+00  0.686263593370906E+00 -0.383246796357856E+00
  0.168225003578148E+00  0.723394560214556E+00 -0.310035279038536E+00
  0.168225003578148E+00  0.760270532330095E+00 -0.249769524121025E+00
  0.168225003578148E+00  0.796825958826392E+00 -0.199346238863993E+00
  0.168225003578148E+00  0.833418679216614E+00 -0.155694632599240E+00
  0.168225003578148E+00  0.872184802457577E+00 -0.114797819536993E+00
  0.168225003578148E+00  0.912817223350814E+00 -0.760050181345464E-01
  0.168225003578148E+00  0.948476833500794E+00 -0.441774982286944E-01
  0.168225003578148E+00  0.976286477818065E+00 -0.201914674439917E-01
  0.168225003578148E+00  0.993946875613643E+00 -0.514509130987977E-02
  0.168225003578148E+00  0.100000000000000E+01  0.000000000000000E+00
  0.205733380460454E+00  0.000000000000000E+00  0.000000000000000E+00
  0.205733380460454E+00  0.604494922447252E-02 -0.596765083500939E-02
  0.205733380460454E+00  0.236777173327253E-01 -0.234117191241286E-01
  0.205733380460454E+00  0.514276011986298E-01 -0.511696107228647E-01
  0.205733380460454E+00  0.869537974205172E-01 -0.878165546705882E-01
  0.205733380460454E+00  0.127171115203571E+00 -0.131882578190007E+00
  0.205733380460454E+00  0.168225003578148E+00 -0.181255551167386E+00
  0.205733380460454E+00  0.205733380460454E+00 -0.232010780690941E+00
  0.205733380460454E+00  0.242163119217158E+00 -0.288530735286852E+00
  0.205733380460454E+00  0.278735033771838E+00 -0.355021521518952E+00
  0.205733380460454E+00  0.315630987498634E+00 -0.435069058669540E+00
  0.205733380460454E+00  0.352750971809412E+00 -0.530933097678773E+00
  0.205733380460454E+00  0.389908180431688E+00 -0.639622810829884E+00
  0.205733380460454E+00  0.426983171375617E+00 -0.747602285456399E+00
  0.205733380460454E+00  0.464000268876714E+00 -0.829995130103443E+00
  0.205733380460454E+00  0.501017271733599E+00 -0.860139927297228E+00
  0.205733380460454E+00  0.538046091824583E+00 -0.826595716036479E+00
  0.205733380460454E+00  0.575073032851187E+00 -0.742012424079958E+00
  0.205733380460454E+00  0.612091338824018E+00 -0.633610493541204E+00
  0.205733380460454E+00  0.649127649067530E+00 -0.525719824869848E+00
  0.205733380460454E+00  0.686263593370906E+00 -0.430596564646956E+00
  0.205733380460454E+00  0.723394560214556E+00 -0.350828647513533E+00
  0.205733380460454E+00  0.760270532330095E+00 -0.284484678269973E+00
  0.205733380460454E+00  0.796825958826392E+00 -0.228334338244589E+00
  0.205733380460454E+00  0.833418679216614E+00 -0.179169240857798E+00
  0.205733380460454E+00  0.872184802457577E+00 -0.132618211966928E+00
  0.205733380460454E+00  0.912817223350814E+00 -0.880585081154512E-01
  0.205733380460454E+00  0.948476833500794E+00 -0.512662178311012E-01
  0.205733380460454E+00  0.976286477818065E+00 -0.234472414711350E-01
  0.205733380460454E+00  0.993946875613643E+00 -0.597572342920800E-02
  0.205733380460454E+00  0.100000000000000E+01  0.000000000000000E+00
  0.242163119217158E+00  0.000000000000000E+00  0.000000000000000E+00
  0.242163119217158E+00  0.604494922447252E-02 -0.662962060537789E-02
  0.242163119217158E+00  0.236777173327253E-01 -0.260037192088803E-01
  0.242163119217158E+00  0.514276011986298E-01 -0.567912988742743E-01
  0.242163119217158E+00  0.869537974205172E-01 -0.972856210645092E-01
  0.242163119217158E+00  0.127171115203571E+00 -0.145618921277120E+00
  0.242163119217158E+00  0.168225003578148E+00 -0.199155206921475E+00
  0.242163119217158E+00  0.205733380460454E+00 -0.253392827725105E+00
  0.242163119217158E+00  0.242163119217158E+00 -0.312770245503657E+00
  0.242163119217158E+00  0.278735033771838E+00 -0.381244211709950E+00
  0.242163119217158E+00  0.315630987498634E+00 -0.461840205725260E+00
  0.242163119217158E+00  0.352750971809412E+00 -0.556122106682809E+00
  0.242163119217158E+00  0.389908180431688E+00 -0.660746970854794E+00
  0.242163119217158E+00  0.426983171375617E+00 -0.762946691548556E+00
  0.242163119217158E+00  0.464000268876714E+00 -0.840062728251235E+00
  0.242163119217158E+00  0.501017271733599E+00 -0.868124750416905E+00
  0.242163119217158E+00  0.538046091824583E+00 -0.836893429489685E+00
  0.242163119217158E+00  0.575073032851187E+00 -0.757690297013308E+00
  0.242163119217158E+00  0.612091338824018E+00 -0.655010792348071E+00
  0.242163119217158E+00  0.649127649067530E+00 -0.551048669529279E+00
  0.242163119217158E+00  0.686263593370906E+00 -0.457385673887583E+00
  0.242163119217158E+00  0.723394560214556E+00 -0.376969002414994E+00
  0.242163119217158E+00  0.760270532330095E+00 -0.308555807535228E+00
  0.242163119217158E+00  0.796825958826392E+00 -0.249492885510475E+00
  0.242163119217158E+00  0.833418679216614E+00 -0.196907861227509E+00
  0.242163119217158E+00  0.872184802457577E+00 -0.146421719478791E+00
  0.242163119217158E+00  0.912817223350814E+00 -0.975521967888678E-01
  0.242163119217158E+00  0.948476833500794E+00 -0.568983144215409E-01
  0.242163119217158E+00  0.976286477818065E+00 -0.260431588756490E-01
  0.242163119217158E+00  0.993946875613643E+00 -0.663858856178594E-02
  0.242163119217158E+00  0.100000000000000E+01  0.000000000000000E+00
  0.278735033771838E+00  0.000000000000000E+00  0.000000000000000E+00
  0.278735033771838E+00  0.604494922447252E-02 -0.715506762638776E-02
  0.278735033771838E+00  0.236777173327253E-01 -0.280588350030328E-01
  0.278735033771838E+00  0.514276011986298E-01 -0.612282363448263E-01
  0.278735033771838E+00  0.869537974205172E-01 -0.104674553884848E+00
  0.278735033771838E+00  0.127171115203571E+00 -0.156102211592105E+00
  0.278735033771838E+00  0.168225003578148E+00 -0.212315164439550E+00
  0.278735033771838E+00  0.205733380460454E+00 -0.268269780825763E+00
  0.278735033771838E+00  0.242163119217158E+00 -0.328207966732237E+00
  0.278735033771838E+00  0.278735033771838E+00 -0.395468495562110E+00
  0.278735033771838E+00  0.315630987498634E+00 -0.472031672644018E+00
  0.278735033771838E+00  0.352750971809412E+00 -0.558266837208982E+00
  0.278735033771838E+00  0.389908180431688E+00 -0.650432712260735E+00
  0.278735033771838E+00  0.426983171375617E+00 -0.737656039522930E+00
  0.278735033771838E+00  0.464000268876714E+00 -0.802037798945635E+00
  0.278735033771838E+00  0.501017271733599E+00 -0.825210037771604E+00
  0.278735033771838E+00  0.538046091824583E+00 -0.799412691281347E+00
  0.278735033771838E+00  0.575073032851187E+00 -0.733226486582592E+00
  0.278735033771838E+00  0.612091338824018E+00 -0.645461940645337E+00
  0.278735033771838E+00  0.649127649067530E+00 -0.553709498669629E+00
  0.278735033771838E+00  0.686263593370906E+00 -0.467871674081779E+00
  0.278735033771838E+00  0.723394560214556E+00 -0.391328909052887E+00
  0.278735033771838E+00  0.760270532330095E+00 -0.324002020980686E+00
  0.278735033771838E+00  0.796825958826392E+00 -0.264283200884945E+00
  0.278735033771838E+00  0.833418679216614E+00 -0.209973911109385E+00
  0.278735033771838E+00  0.872184802457577E+00 -0.156951479309026E+00
  0.278735033771838E+00  0.912817223350814E+00 -0.104959634130600E+00
  0.278735033771838E+00  0.948476833500794E+00 -0.613433701961879E-01
  0.278735033771838E+00  0.976286477818065E+00 -0.281013734205971E-01
  0.278735033771838E+00  0.993946875613643E+00 -0.716474625057823E-02
  0.278735033771838E+00  0.100000000000000E+01  0.000000000000000E+00
  0.315630987498634E+00  0.000000000000000E+00  0.000000000000000E+00
  0.315630987498634E+00  0.604494922447252E-02 -0.755570133061371E-02
  0.315630987498634E+00  0.236777173327253E-01 -0.296235611460792E-01
  0.315630987498634E+00  0.514276011986298E-01 -0.645869489985282E-01
  0.315630987498634E+00  0.869537974205172E-01 -0.110186778969126E+00
  0.315630987498634E+00  0.127171115203571E+00 -0.163696418159489E+00
  0.315630987498634E+00  0.168225003578148E+00 -0.221364034279512E+00
  0.315630987498634E+00  0.205733380460454E+00 -0.277672890146266E+00
  0.315630987498634E+00  0.242163119217158E+00 -0.336535595196093E+00
  0.315630987498634E+00  0.278735033771838E+00 -0.400539619546237E+00
  0.315630987498634E+00  0.315630987498634E+00 -0.470537040507069E+00
  0.315630987498634E+00  0.352750971809412E+00 -0.545730070860867E+00
  0.315630987498634E+00  0.389908180431688E+00 -0.622213822677741E+00
  0.315630987498634E+00  0.426983171375617E+00 -0.691484263443749E+00
  0.315630987498634E+00  0.464000268876714E+00 -0.741008900162597E+00
  0.315630987498634E+00  0.501017271733599E+00 -0.758544707812136E+00
  0.315630987498634E+00  0.538046091824583E+00 -0.739013162481416E+00
  0.315630987498634E+00  0.575073032851187E+00 -0.688030106372758E+00
  0.315630987498634E+00  0.612091338824018E+00 -0.618180898280108E+00
  0.315630987498634E+00  0.649127649067530E+00 -0.541848693099569E+00
  0.315630987498634E+00  0.686263593370906E+00 -0.466813323822571E+00
  0.315630987498634E+00  0.723394560214556E+00 -0.396667033195434E+00
  0.315630987498634E+00  0.760270532330095E+00 -0.332458896017174E+00
  0.315630987498634E+00  0.796825958826392E+00 -0.273701971057303E+00
  0.315630987498634E+00  0.833418679216614E+00 -0.218982561744048E+00
  0.315630987498634E+00  0.872184802457577E+00 -0.164574668201758E+00
  0.315630987498634E+00  0.912817223350814E+00 -0.110484977756185E+00
  0.315630987498634E+00  0.948476833500794E+00 -0.647081352340180E-01
  0.315630987498634E+00  0.976286477818065E+00 -0.296684519490737E-01
  0.315630987498634E+00  0.993946875613643E+00 -0.756592177256978E-02
  0.315630987498634E+00  0.100000000000000E+01  0.000000000000000E+00
  0.352750971809412E+00  0.000000000000000E+00  0.000000000000000E+00
  0.352750971809412E+00  0.604494922447252E-02 -0.784539394251567E-02
  0.352750971809412E+00  0.236777173327253E-01 -0.307530583928564E-01
  0.352750971809412E+00  0.514276011986298E-01 -0.669944859129145E-01
  0.352750971809412E+00  0.869537974205172E-01 -0.114067417888168E+00
  0.352750971809412E+00  0.127171115203571E+00 -0.168845406568519E+00
  0.352750971809412E+00  0.168225003578148E+00 -0.227073668101059E+00
  0.352750971809412E+00  0.205733380460454E+00 -0.282863381510913E+00
  0.352750971809412E+00  0.242163119217158E+00 -0.339784575775432E+00
  0.352750971809412E+00  0.278735033771838E+00 -0.399752133442527E+00
  0.352750971809412E+00  0.315630987498634E+00 -0.462726079465344E+00
  0.352750971809412E+00  0.352750971809412E+00 -0.527131271326906E+00
  0.352750971809412E+00  0.389908180431688E+00 -0.589241633661505E+00
  0.352750971809412E+00  0.426983171375617E+00 -0.642773101341787E+00
  0.352750971809412E+00  0.464000268876714E+00 -0.679632431366114E+00
  0.352750971809412E+00  0.501017271733599E+00 -0.692427003022635E+00
  0.352750971809412E+00  0.538046091824583E+00 -0.678168080245313E+00
  0.352750971809412E+00  0.575073032851187E+00 -0.640160290473301E+00
  0.352750971809412E+00  0.612091338824018E+00 -0.586048326935974E+00
  0.352750971809412E+00  0.649127649067530E+00 -0.523889413751407E+00
  0.352750971809412E+00  0.686263593370906E+00 -0.459448493262650E+00
  0.352750971809412E+00  0.723394560214556E+00 -0.396186074406871E+00
  0.352750971809412E+00  0.760270532330095E+00 -0.335893941906740E+00
  0.352750971809412E+00  0.796825958826392E+00 -0.278968997524189E+00
  0.352750971809412E+00  0.833418679216614E+00 -0.224689097543770E+00
  0.352750971809412E+00  0.872184802457577E+00 -0.169739138376698E+00
  0.352750971809412E+00  0.912817223350814E+00 -0.114374248902709E+00
  0.352750971809412E+00  0.948476833500794E+00 -0.671199290536165E-01
  0.352750971809412E+00  0.976286477818065E+00 -0.307996411430312E-01
  0.352750971809412E+00  0.993946875613643E+00 -0.785600612136493E-02
  0.352750971809412E+00  0.100000000000000E+01  0.000000000000000E+00
  0.389908180431688E+00  0.000000000000000E+00  0.000000000000000E+00
  0.389908180431688E+00  0.604494922447252E-02 -0.804212667565097E-02
  0.389908180431688E+00  0.236777173327253E-01 -0.315186272531620E-01
  0.389908180431688E+00  0.514276011986298E-01 -0.686133201828657E-01
  0.389908180431688E+00  0.869537974205172E-01 -0.116622679369343E+00
  0.389908180431688E+00  0.127171115203571E+00 -0.172083659071742E+00
  0.389908180431688E+00  0.168225003578148E+00 -0.230330685638181E+00
  0.389908180431688E+00  0.205733380460454E+00 -0.285214488541929E+00
  0.389908180431688E+00  0.242163119217158E+00 -0.340025096537030E+00
  0.389908180431688E+00  0.278735033771838E+00 -0.396187123004524E+00
  0.389908180431688E+00  0.315630987498634E+00 -0.453104335101983E+00
  0.389908180431688E+00  0.352750971809412E+00 -0.508852173929215E+00
  0.389908180431688E+00  0.389908180431688E+00 -0.560102763462065E+00
  0.389908180431688E+00  0.426983171375617E+00 -0.602289514995642E+00
  0.389908180431688E+00  0.464000268876714E+00 -0.630305841923936E+00
  0.389908180431688E+00  0.501017271733599E+00 -0.639841898054653E+00
  0.389908180431688E+00  0.538046091824583E+00 -0.629208324101365E+00
  0.389908180431688E+00  0.575073032851187E+00 -0.600272177629377E+00
  0.389908180431688E+00  0.612091338824018E+00 -0.557528567987006E+00
  0.389908180431688E+00  0.649127649067530E+00 -0.506108745335849E+00
  0.389908180431688E+00  0.686263593370906E+00 -0.450198728753351E+00
  0.389908180431688E+00  0.723394560214556E+00 -0.392898044976117E+00
  0.389908180431688E+00  0.760270532330095E+00 -0.336322183367416E+00
  0.389908180431688E+00  0.796825958826392E+00 -0.281417816323833E+00
  0.389908180431688E+00  0.833418679216614E+00 -0.227962926610571E+00
  0.389908180431688E+00  0.872184802457577E+00 -0.172983816056907E+00
  0.389908180431688E+00  0.912817223350814E+00 -0.116934725107569E+00
  0.389908180431688E+00  0.948476833500794E+00 -0.687415628065902E-01
  0.389908180431688E+00  0.976286477818065E+00 -0.315663520462933E-01
  0.389908180431688E+00  0.993946875613643E+00 -0.805300484226586E-02
  0.389908180431688E+00  0.100000000000000E+01  0.000000000000000E+00
  0.426983171375617E+00  0.000000000000000E+00  0.000000000000000E+00
  0.426983171375617E+00  0.604494922447252E-02 -0.816531535412405E-02
  0.426983171375617E+00  0.236777173327253E-01 -0.319970590244099E-01
  0.426983171375617E+00  0.514276011986298E-01 -0.696166959301852E-01
  0.426983171375617E+00  0.869537974205172E-01 -0.118171828603827E+00
  0.426983171375617E+00  0.127171115203571E+00 -0.173948408817014E+00
  0.426983171375617E+00  0.168225003578148E+00 -0.231983656287288E+00
  0.426983171375617E+00  0.205733380460454E+00 -0.285967374144878E+00
  0.426983171375617E+00  0.242163119217158E+00 -0.338997837525776E+00
  0.426983171375617E+00  0.278735033771838E+00 -0.392195312647497E+00
  0.426983171375617E+00  0.315630987498634E+00 -0.444678828595642E+00
  0.426983171375617E+00  0.352750971809412E+00 -0.494444632953957E+00
  0.426983171375617E+00  0.389908180431688E+00 -0.538581494654462E+00
  0.426983171375617E+00  0.426983171375617E+00 -0.573663156386935E+00
  0.426983171375617E+00  0.464000268876714E+00 -0.596315982453704E+00
  0.426983171375617E+00  0.501017271733599E+00 -0.603907860930220E+00
  0.426983171375617E+00  0.538046091824583E+00 -0.595438354794366E+00
  0.426983171375617E+00  0.575073032851187E+00 -0.572012018116294E+00
  0.426983171375617E+00  0.612091338824018E+00 -0.536403661618958E+00
  0.426983171375617E+00  0.649127649067530E+00 -0.492036972219247E+00
  0.426983171375617E+00  0.686263593370906E+00 -0.442038467245758E+00
  0.426983171375617E+00  0.723394560214556E+00 -0.389115995267973E+00
  0.426983171375617E+00  0.760270532330095E+00 -0.335447236534652E+00
  0.426983171375617E+00  0.796825958826392E+00 -0.282259004202375E+00