 VARIABLES =  $x$  $\epsilon=10^{-3}$  $x$2  $\epsilon=10^{-4}$  $x$3  $\epsilon=10^{-5}$
 ZONE I=        8001 ,DATAPACKING=POINT
  0.994000000000000E+00  0.000000000000000E+00  0.994000000000000E+00  0.000000000000000E+00  0.994000000000000E+00  0.000000000000000E+00
  0.993331277528040E+00 -0.412458658611067E-02  0.993330899979788E+00 -0.412424036490480E-02  0.993330793159672E+00 -0.412424914915440E-02
  0.991718956269594E+00 -0.762495565582428E-02  0.991717250381338E+00 -0.762510940646817E-02  0.991717141066480E+00 -0.762511847089315E-02
  0.989715317460115E+00 -0.104616367566000E-01  0.989711952970435E+00 -0.104617256756386E-01  0.989711857049624E+00 -0.104617450314319E-01
  0.987595205321676E+00 -0.128015012082245E-01  0.987590620396316E+00 -0.128014848504532E-01  0.987590547833159E+00 -0.128015215693416E-01
  0.985464425033517E+00 -0.147873582089799E-01  0.985458779083739E+00 -0.147871798646629E-01  0.985458707644851E+00 -0.147872264152355E-01
  0.983361524682565E+00 -0.165147104056987E-01  0.983354993839521E+00 -0.165144558986789E-01  0.983354889695006E+00 -0.165144485839895E-01
  0.981299563598459E+00 -0.180454029873427E-01  0.981292431049413E+00 -0.180460637746897E-01  0.981292312893241E+00 -0.180460535527356E-01
  0.979282081841421E+00 -0.194227124639118E-01  0.979274394722106E+00 -0.194245600344923E-01  0.979274266221464E+00 -0.194245430206335E-01
  0.977308447132778E+00 -0.206765059958703E-01  0.977300183732050E+00 -0.206796585957134E-01  0.977300050762130E+00 -0.206796760738730E-01
  0.975376429097292E+00 -0.218283754706623E-01  0.975367557134880E+00 -0.218329563766894E-01  0.975367419102720E+00 -0.218329972486653E-01
  0.973483250868099E+00 -0.228945196542242E-01  0.973473753639607E+00 -0.229005227866112E-01  0.973473611053343E+00 -0.229005890417188E-01
  0.971626026956832E+00 -0.238874434251515E-01  0.971615949873957E+00 -0.238946590783689E-01  0.971615802969213E+00 -0.238947529630962E-01
  0.969802118687643E+00 -0.248165721552784E-01  0.969791447611599E+00 -0.248250080801210E-01  0.969791298780835E+00 -0.248251185747599E-01
  0.968009013135258E+00 -0.256896875378033E-01  0.967997757162079E+00 -0.256992219658657E-01  0.967997606487978E+00 -0.256993513560234E-01
  0.966244757215076E+00 -0.265120936667926E-01  0.966232607682353E+00 -0.265235197311009E-01  0.966232457368856E+00 -0.265236606759999E-01
  0.964506980859286E+00 -0.272897666437035E-01  0.964493944981686E+00 -0.273030157134563E-01  0.964493794822137E+00 -0.273031713754986E-01
  0.962793838422089E+00 -0.280269466878033E-01  0.962779916050725E+00 -0.280419695758830E-01  0.962779765651218E+00 -0.280421429678576E-01
  0.961103664722183E+00 -0.287272079528725E-01  0.961088850004312E+00 -0.287439692466207E-01  0.961088698833737E+00 -0.287441631610741E-01
  0.959434956008298E+00 -0.293935930821970E-01  0.959419238669133E+00 -0.294120672517744E-01  0.959419086099109E+00 -0.294122842392473E-01
  0.957786351945130E+00 -0.300287153086269E-01  0.957769718278403E+00 -0.300488839860956E-01  0.957769563613649E+00 -0.300491263578633E-01
  0.956156619219919E+00 -0.306348370527068E-01  0.956139064046103E+00 -0.306566603676982E-01  0.956138895356527E+00 -0.306569569411071E-01
  0.954544636934059E+00 -0.312139312251439E-01  0.954526149695521E+00 -0.312373935642419E-01  0.954525960639814E+00 -0.312377474678876E-01
  0.952949383734895E+00 -0.317677296121431E-01  0.952929944322480E+00 -0.317928252247141E-01  0.952929734217102E+00 -0.317932375391412E-01
  0.951369926550049E+00 -0.322977614828880E-01  0.951349513659419E+00 -0.323244865520191E-01  0.951349281769466E+00 -0.323249583354606E-01
  0.949805410753494E+00 -0.328053847035413E-01  0.949784002171234E+00 -0.328337368139216E-01  0.949783747721088E+00 -0.328342690904518E-01
  0.948255051589034E+00 -0.332918110428656E-01  0.948232624418593E+00 -0.333217887828022E-01  0.948232346600952E+00 -0.333223825343136E-01
  0.946718126687357E+00 -0.337581269282527E-01  0.946694657528175E+00 -0.337897295898349E-01  0.946694355511670E+00 -0.337903857508813E-01
  0.945193969529019E+00 -0.342053106034888E-01  0.945169434619069E+00 -0.342385379553205E-01  0.945169107554612E+00 -0.342392574100864E-01
  0.943681963723487E+00 -0.346342464150227E-01  0.943656339053023E+00 -0.346690985291154E-01  0.943655986079093E+00 -0.346698821099476E-01
  0.942181537991577E+00 -0.350457367875397E-01  0.942154799394137E+00 -0.350822139069727E-01  0.942154419641143E+00 -0.350830623940473E-01
  0.940692161754353E+00 -0.354405123256347E-01  0.940664284979677E+00 -0.354786147631366E-01  0.940663877573545E+00 -0.354795288849402E-01
  0.939213341245496E+00 -0.358192403847687E-01  0.939184302018011E+00 -0.358589684449130E-01  0.939183866083121E+00 -0.358599488792966E-01
  0.937744616076216E+00 -0.361825323833429E-01  0.937714390141951E+00 -0.362238863028881E-01  0.937713924803529E+00 -0.362249336785142E-01
  0.936285556192210E+00 -0.365309500728618E-01  0.936254119356394E+00 -0.365739299751094E-01  0.936253623742437E+00 -0.365750448731585E-01
  0.934835759170958E+00 -0.368650109406078E-01  0.934803087328087E+00 -0.369096168006396E-01  0.934802560570917E+00 -0.369107997566763E-01
  0.933394847815215E+00 -0.371851928859880E-01  0.933360916973018E+00 -0.372314245043841E-01  0.933360358210513E+00 -0.372326760103101E-01
  0.931962468004882E+00 -0.374919382855303E-01  0.931927254303324E+00 -0.375397952687167E-01  0.931926662679882E+00 -0.375411157747570E-01
  0.930538286774854E+00 -0.377856575407286E-01  0.930501766501092E+00 -0.378351392865242E-01  0.930501141168376E+00 -0.378365292032083E-01
  0.929121990590977E+00 -0.380667321863609E-01  0.929084140191008E+00 -0.381178378736087E-01  0.929083480308512E+00 -0.381192975737191E-01
  0.927713283800150E+00 -0.383355176235827E-01  0.927674079887752E+00 -0.383882462049937E-01  0.927673384623213E+00 -0.383897760254617E-01
  0.926311887233843E+00 -0.385923455313348E-01  0.926271306597298E+00 -0.386466957288590E-01  0.926270575126980E+00 -0.386482959725960E-01
  0.924917536947135E+00 -0.388375260008550E-01  0.924875556554131E+00 -0.388934963030409E-01  0.924874788063015E+00 -0.388951672406962E-01
  0.923529983077735E+00 -0.390713494309415E-01  0.923486580078764E+00 -0.391289380918545E-01  0.923485773760645E+00 -0.391306799634948E-01
  0.922148988811457E+00 -0.392940882157394E-01  0.922104140541994E+00 -0.393532932551024E-01  0.922103295599513E+00 -0.393551062718103E-01
  0.920774329442397E+00 -0.395059982519866E-01  0.920728013424067E+00 -0.395668174562713E-01  0.920727129068684E+00 -0.395687018016634E-01
  0.919405791517519E+00 -0.397073202886353E-01  0.919357985458431E+00 -0.397697512128894E-01  0.919357060910360E+00 -0.397717070445531E-01
  0.918043172056637E+00 -0.398982811384246E-01  0.917993853851049E+00 -0.399623211086630E-01  0.917992888339146E+00 -0.399643485595160E-01
  0.916686277839893E+00 -0.400790947681843E-01  0.916635425567319E+00 -0.401447408842080E-01  0.916634418328948E+00 -0.401468400637802E-01
  0.915334924755779E+00 -0.402499632823053E-01  0.915282516679650E+00 -0.403172124208355E-01  0.915281466960523E+00 -0.403193834164792E-01
  0.913988937203567E+00 -0.404110778118302E-01  0.913934951769523E+00 -0.404799266298722E-01  0.913933858823530E+00 -0.404821695079017E-01
  0.912648147544735E+00 -0.405626193199506E-01  0.912592563378633E+00 -0.406330642583160E-01  0.912591426467645E+00 -0.406353790650801E-01
  0.911312395598589E+00 -0.407047593332736E-01  0.911255191504267E+00 -0.407767966202041E-01  0.911254009897947E+00 -0.407791833830962E-01
  0.909981528177828E+00 -0.408376606070123E-01  0.909922683134698E+00 -0.409112862618613E-01  0.909921456110289E+00 -0.409137449902688E-01
  0.908655398660272E+00 -0.409614777312223E-01  0.908594891820761E+00 -0.410366875681587E-01  0.908593618662883E+00 -0.410392182543558E-01
  0.907333866593380E+00 -0.410763576843198E-01  0.907271677280267E+00 -0.411531473160250E-01  0.907270357280707E+00 -0.411557499360124E-01
  0.906016797328554E+00 -0.411824403393557E-01  0.905952905032232E+00 -0.412608051806920E-01  0.905951537489731E+00 -0.412634796949863E-01
  0.904704061682542E+00 -0.412798589278626E-01  0.904638446058216E+00 -0.413597941994970E-01  0.904637030278265E+00 -0.413625405538721E-01
  0.903395535623527E+00 -0.413687404655262E-01  0.903328176488387E+00 -0.414502411974945E-01  0.903326711783017E+00 -0.414530593236791E-01
  0.902091099979752E+00 -0.414492061434379E-01  0.902021977310118E+00 -0.415322671786403E-01  0.902020462997701E+00 -0.415351569949733E-01
  0.900790640168733E+00 -0.415213716882597E-01  0.900719734097203E+00 -0.416059876858796E-01  0.900718169502251E+00 -0.416089490979264E-01
  0.899494045945312E+00 -0.415853476942571E-01  0.899421336757909E+00 -0.416715131330992E-01  0.899419721210883E+00 -0.416745460342305E-01
  0.898201211166980E+00 -0.416412399298345E-01  0.898126679300319E+00 -0.417289491115764E-01  0.898125012137437E+00 -0.417320533835131E-01
  0.896912033575043E+00 -0.416891496209172E-01  0.896835659613518E+00 -0.417783966732735E-01  0.896833940176575E+00 -0.417815721865991E-01
  0.895626414590345E+00 -0.417291737132778E-01  0.895548179263350E+00 -0.418199525930762E-01  0.895546406899536E+00 -0.418231992077180E-01
  0.894344259122386E+00 -0.417614051156846E-01  0.894264143301560E+00 -0.418537096118515E-01  0.894262317363292E+00 -0.418570271775342E-01
  0.893065475390773E+00 -0.417859329255526E-01  0.892983460087293E+00 -0.418797566620105E-01  0.892981579932046E+00 -0.418831450186820E-01
  0.891789974758044E+00 -0.418028426386108E-01  0.891706041119954E+00 -0.418981790770874E-01  0.891704106110102E+00 -0.419016380553205E-01
  0.890517671573004E+00 -0.418122163439448E-01  0.890431800882583E+00 -0.419090587866954E-01  0.890429810385242E+00 -0.419125882080652E-01
  0.889248483023749E+00 -0.418141329056408E-01  0.889160656694934E+00 -0.419124744980862E-01  0.889158610081817E+00 -0.419160741755256E-01
  0.887982328999694E+00 -0.418086681321389E-01  0.887892528577573E+00 -0.419085018637593E-01  0.887890425222886E+00 -0.419121716034769E-01
  0.886719131961900E+00 -0.417958949342934E-01  0.886627339168235E+00 -0.418972136022251E-01  0.886625178403036E+00 -0.419009532405571E-01
  0.885458816821125E+00 -0.417758834730501E-01  0.885365013501401E+00 -0.418786797254021E-01  0.885362794661304E+00 -0.418824890907068E-01
  0.884201310823032E+00 -0.417487012975584E-01  0.884105478944050E+00 -0.418529676357879E-01  0.884103201369115E+00 -0.418568465486637E-01
  0.882946543440048E+00 -0.417144134744671E-01  0.882848665087572E+00 -0.418201422556735E-01  0.882846328122185E+00 -0.418240905291688E-01
  0.881694446269410E+00 -0.416730827090802E-01  0.881594503645857E+00 -0.417802661482231E-01  0.881592106638624E+00 -0.417842835880350E-01
  0.880444952936965E+00 -0.416247694589927E-01  0.880342928359147E+00 -0.417333996310340E-01  0.880340470662781E+00 -0.417374860356998E-01
  0.879197999006337E+00 -0.415695320407676E-01  0.879093874903245E+00 -0.416796008827427E-01  0.879091355874469E+00 -0.416837560438221E-01
  0.877953521893096E+00 -0.415074267301697E-01  0.877847280803737E+00 -0.416189260431892E-01  0.877844699803173E+00 -0.416231497454390E-01
  0.876711460783595E+00 -0.414385078564260E-01  0.876603085354866E+00 -0.415514293076109E-01  0.876600441746943E+00 -0.415557213291517E-01
  0.875471756558166E+00 -0.413628278909417E-01  0.875361229542776E+00 -0.414771630152957E-01  0.875358522695631E+00 -0.414815231277717E-01
  0.874234351718399E+00 -0.412804375308683E-01  0.874121655972833E+00 -0.413961777330881E-01  0.874118885258215E+00 -0.414006057018196E-01
  0.872999190318226E+00 -0.411913857778829E-01  0.872884308800750E+00 -0.413085223341096E-01  0.872881473593932E+00 -0.413130179182395E-01
  0.871766217898583E+00 -0.410957200125119E-01  0.871649133667288E+00 -0.412142440720268E-01  0.871646233346978E+00 -0.412188070246598E-01
  0.870535381425417E+00 -0.409934860643045E-01  0.870416077636308E+00 -0.411133886511694E-01  0.870413111584562E+00 -0.411180187195066E-01
  0.869306629230833E+00 -0.408847282781357E-01  0.869185089135946E+00 -0.410060002927823E-01  0.869182056738085E+00 -0.410106972182490E-01
  0.868079910957183E+00 -0.407694895768991E-01  0.867956117902748E+00 -0.408921217976676E-01  0.867953018547276E+00 -0.408968853160361E-01
  0.866855177503924E+00 -0.406478115208265E-01  0.866729114928558E+00 -0.407717946054570E-01  0.866725948007084E+00 -0.407766244469641E-01
  0.865632380977076E+00 -0.405197343636559E-01  0.865504032410011E+00 -0.406450588507327E-01  0.865500797317171E+00 -0.406499547401927E-01
  0.864411474641118E+00 -0.403852971058504E-01  0.864280823700468E+00 -0.405119534162032E-01  0.864277519833851E+00 -0.405169150731154E-01
  0.863192412873198E+00 -0.402445375450568E-01  0.863059445073859E+00 -0.403725140088869E-01  0.863056070024322E+00 -0.403775431217711E-01
  0.861975151119497E+00 -0.400974923239772E-01  0.861839850120073E+00 -0.402267792600007E-01  0.861836403423072E+00 -0.402318754086708E-01
  0.860759645853638E+00 -0.399441969758170E-01  0.860621995401699E+00 -0.400747845831785E-01  0.860618476590316E+00 -0.400799473482018E-01
  0.859545854537023E+00 -0.397846859674557E-01  0.859405838467220E+00 -0.399165643272587E-01  0.859402247072367E+00 -0.399217932897579E-01
  0.858333735580984E+00 -0.396189927404831E-01  0.858191337813205E+00 -0.397521518172655E-01  0.858187673363810E+00 -0.397574465587350E-01
  0.857123248310645E+00 -0.394471497502269E-01  0.856978452848220E+00 -0.395815793933869E-01  0.856974714871398E+00 -0.395869394955210E-01
  0.855914352930412E+00 -0.392691885028932E-01  0.855767143858347E+00 -0.394048784480666E-01  0.855763331879566E+00 -0.394103034925990E-01
  0.854707010490983E+00 -0.390851395909313E-01  0.854557371974235E+00 -0.392220794613232E-01  0.854553485517469E+00 -0.392275690298775E-01
  0.853501182857813E+00 -0.388950327267263E-01  0.853349099139605E+00 -0.390332120343989E-01  0.853345137727468E+00 -0.390387657083488E-01
  0.852296832680942E+00 -0.386988967747165E-01  0.852142288081107E+00 -0.388383049218352E-01  0.852138251234990E+00 -0.388439222821738E-01
  0.851093923366130E+00 -0.384967597820265E-01  0.850936902279485E+00 -0.386373860620662E-01  0.850932789519676E+00 -0.386430666892838E-01
  0.849892419047204E+00 -0.382886490076988E-01  0.849732905941964E+00 -0.384304826066126E-01  0.849728716787761E+00 -0.384362260805824E-01
  0.848692284559586E+00 -0.380745909506045E-01  0.848530263975795E+00 -0.382176209479556E-01  0.848525997945612E+00 -0.382234268478268E-01
  0.847493485414911E+00 -0.378546113761047E-01  0.847328941962910E+00 -0.379988267461645E-01  0.847324598574373E+00 -0.380046946502620E-01
  0.846295987776696E+00 -0.376287353415331E-01  0.846128906135616E+00 -0.377741249543456E-01  0.846124484901364E+00 -0.377800544445909E-01
  0.845099758437009E+00 -0.373969872205630E-01  0.844930123353281E+00 -0.375435398429778E-01  0.844925623789727E+00 -0.375495304956324E-01
  0.843904764794067E+00 -0.371593907265197E-01  0.843732561079970E+00 -0.373070950231949E-01  0.843727982702989E+00 -0.373131464134369E-01
  0.842710974830747E+00 -0.369159689346939E-01  0.842536187362964E+00 -0.370648134690701E-01  0.842531529687967E+00 -0.370709251709171E-01
  0.841518357093933E+00 -0.366667443037104E-01  0.841340970812141E+00 -0.368167175389570E-01  0.841336233354141E+00 -0.368228891251932E-01
  0.840326880674687E+00 -0.364117386960004E-01  0.840146880580158E+00 -0.365628289959355E-01  0.840142062853833E+00 -0.365690600380437E-01
  0.839136515189176E+00 -0.361509733974254E-01  0.838953886343405E+00 -0.363031690274101E-01  0.838948987863157E+00 -0.363094590955079E-01
  0.837947230760349E+00 -0.358844691360951E-01  0.837761958283693E+00 -0.360377582639042E-01  0.837756978563696E+00 -0.360441069266837E-01
  0.836758998000294E+00 -0.356122461004218E-01  0.836571067070636E+00 -0.357666167970905E-01  0.836566005624889E+00 -0.357730236217621E-01
  0.835571787993276E+00 -0.353343239564495E-01  0.835381183844699E+00 -0.354897641970982E-01  0.835376040187070E+00 -0.354962287493379E-01
  0.834385572279399E+00 -0.350507218644939E-01  0.834192280200881E+00 -0.352072195291320E-01  0.834187053845145E+00 -0.352137413730314E-01
  0.833200322838873E+00 -0.347614584951285E-01  0.833004328172995E+00 -0.349190013694368E-01  0.832999018632872E+00 -0.349255800674571E-01
  0.832016012076863E+00 -0.344665520445479E-01  0.831817300218528E+00 -0.346251278206425E-01  0.831811907007719E+00 -0.346317629335700E-01
  0.830832612808880E+00 -0.341660202493406E-01  0.830631169204052E+00 -0.343256165265170E-01  0.830625691836267E+00 -0.343323076134225E-01
  0.829650098246703E+00 -0.338598804006977E-01  0.829445908391150E+00 -0.340204846861577E-01  0.829440346380138E+00 -0.340272313043576E-01
  0.828468441984797E+00 -0.335481493580870E-01  0.828261491422855E+00 -0.337097490676478E-01  0.828255844282424E+00 -0.337165507726679E-01
  0.827287617987211E+00 -0.332308435624172E-01  0.827077892310552E+00 -0.333934260212038E-01  0.827072159554597E+00 -0.334002823667452E-01
  0.826107600574936E+00 -0.329079790487152E-01  0.825895085421350E+00 -0.330715314918373E-01  0.825889266563868E+00 -0.330784420297445E-01
  0.824928364413696E+00 -0.325795714583419E-01  0.824713045465880E+00 -0.327440810315553E-01  0.824707140020990E+00 -0.327510453117859E-01
  0.823749884502155E+00 -0.322456360507660E-01  0.823531747486516E+00 -0.324110898111194E-01  0.823525754968471E+00 -0.324181073817159E-01
  0.822572136160532E+00 -0.319061877149174E-01  0.822351166845994E+00 -0.320725726313848E-01  0.822345086769196E+00 -0.320796430384483E-01
  0.821395095019589E+00 -0.315612409801389E-01  0.821171279216410E+00 -0.317285439342394E-01  0.821165111095418E+00 -0.317356667219044E-01
  0.820218737009991E+00 -0.312108100267556E-01  0.819992060568586E+00 -0.313790178131590E-01  0.819985803918128E+00 -0.313861925235703E-01
  0.819043038352011E+00 -0.308549086962782E-01  0.818813487161785E+00 -0.310240080233994E-01  0.818807141496760E+00 -0.310312341966898E-01
  0.817867975545576E+00 -0.304935505012573E-01  0.817635535533760E+00 -0.306635279918378E-01  0.817629100369247E+00 -0.306708051661079E-01
  0.816693525360631E+00 -0.301267486348041E-01  0.816458182491127E+00 -0.302975908264831E-01  0.816451657342385E+00 -0.303049185377817E-01
  0.815519664827813E+00 -0.297545159797935E-01  0.815281405100039E+00 -0.299262093256671E-01  0.815274789482512E+00 -0.299335871079733E-01
  0.814346371229418E+00 -0.293768651177611E-01  0.814105180677165E+00 -0.295493959869316E-01  0.814098474106477E+00 -0.295568233721379E-01
  0.813173622090652E+00 -0.289938083375106E-01  0.812929486780941E+00 -0.291671630156255E-01  0.812922688772897E+00 -0.291746395335215E-01
  0.812001395171154E+00 -0.286053576434413E-01  0.811754301203097E+00 -0.287795223332231E-01  0.811747411273683E+00 -0.287870475114812E-01
  0.810829668456782E+00 -0.282115247636109E-01  0.810579601960448E+00 -0.283864855853768E-01  0.810572619625821E+00 -0.283940589495382E-01
  0.809658420151643E+00 -0.278123211575418E-01  0.809405367286927E+00 -0.279880641497158E-01  0.809398292063414E+00 -0.279956852231772E-01
  0.808487628670369E+00 -0.274077580237845E-01  0.808231575625864E+00 -0.275842691434002E-01  0.808224407029951E+00 -0.275919374474021E-01
  0.807317272630620E+00 -0.269978463072471E-01  0.807058205622488E+00 -0.271751114304428E-01  0.807050943170816E+00 -0.271828264840579E-01
  0.806147330845812E+00 -0.265825967063013E-01  0.805885236116663E+00 -0.267606016288071E-01  0.805877879326015E+00 -0.267683629489302E-01
  0.804977782318054E+00 -0.261620196796737E-01  0.804712646135819E+00 -0.263407501172918E-01  0.804705194523112E+00 -0.263485572186297E-01
  0.803808606231288E+00 -0.257361254531323E-01  0.803540414888102E+00 -0.259155670422100E-01  0.803532867970373E+00 -0.259234194372727E-01
  0.802639781944635E+00 -0.253049240259763E-01  0.802368521755711E+00 -0.254850623238722E-01  0.802360879050109E+00 -0.254929595229643E-01
  0.801471288985919E+00 -0.248684251773371E-01  0.801196946288433E+00 -0.250492456628813E-01  0.801189207312200E+00 -0.250571871740945E-01
  0.800303107045379E+00 -0.244266384722984E-01  0.800025668197344E+00 -0.246081265462467E-01  0.800017832467804E+00 -0.246161118754525E-01
  0.799135215969554E+00 -0.239795732678435E-01  0.798854667348704E+00 -0.241617142533254E-01  0.798846734383247E+00 -0.241697429041686E-01
  0.797967595755337E+00 -0.235272387186361E-01  0.797683923758003E+00 -0.237100178615979E-01  0.797675893074067E+00 -0.237180893354908E-01
  0.796800226544191E+00 -0.230696437826411E-01  0.796513417584180E+00 -0.232530462522839E-01  0.796505288699237E+00 -0.232611600484004E-01
  0.795633088616518E+00 -0.226067972265936E-01  0.795343129123992E+00 -0.227908081158060E-01  0.795334901555527E+00 -0.227989637310770E-01
  0.794466162386188E+00 -0.221387076313195E-01  0.794173038806535E+00 -0.223233119571064E-01  0.794164712072027E+00 -0.223315088862153E-01
  0.793299428395194E+00 -0.216653833969167E-01  0.793003127187907E+00 -0.218505661008231E-01  0.792994700804811E+00 -0.218588038362017E-01
  0.792132867308471E+00 -0.211868327478000E-01  0.791833374946015E+00 -0.213725786963317E-01  0.791824848431740E+00 -0.213808567281566E-01
  0.790966459908825E+00 -0.207030637376165E-01  0.790663762875509E+00 -0.208893577226563E-01  0.790655135747399E+00 -0.208976755388457E-01
  0.789800187092010E+00 -0.202140842540365E-01  0.789494271882853E+00 -0.204009109932573E-01  0.789485543658163E+00 -0.204092680794685E-01
  0.788634029861919E+00 -0.197199020234243E-01  0.788324882981513E+00 -0.199072461606989E-01  0.788316053177386E+00 -0.199156420003256E-01
  0.787467969325899E+00 -0.192205246153942E-01  0.787155577287272E+00 -0.194083707212021E-01  0.787146645420717E+00 -0.194168047953729E-01
  0.786301986690183E+00 -0.187159594472561E-01  0.785986336013655E+00 -0.189042920190877E-01  0.785977301601522E+00 -0.189127638066642E-01
  0.785136063255433E+00 -0.182062137883548E-01  0.784817140467469E+00 -0.183950172511133E-01  0.784808003026424E+00 -0.184035262286889E-01
  0.783970180412389E+00 -0.176912947643080E-01  0.783647972044449E+00 -0.178805534707084E-01  0.783638731090950E+00 -0.178890991126074E-01
  0.782804319637626E+00 -0.171712093611454E-01  0.782478812225012E+00 -0.173609075921123E-01  0.782469467275281E+00 -0.173694893703894E-01
  0.781638462489409E+00 -0.166459644293546E-01  0.781309642570105E+00 -0.168360863944180E-01  0.781300193140102E+00 -0.168447037788580E-01
  0.780472590603646E+00 -0.161155666878365E-01  0.780140444717156E+00 -0.163060965255256E-01  0.780130890322552E+00 -0.163147489836435E-01
  0.779306685689936E+00 -0.155800227277733E-01  0.778971200376114E+00 -0.157709445060098E-01  0.778961540532261E+00 -0.157796315030511E-01
  0.778140729527705E+00 -0.150393390164137E-01  0.777801891325581E+00 -0.152306367329036E-01  0.777792125547488E+00 -0.152393577318452E-01
  0.776974703962431E+00 -0.144935219007779E-01  0.776632499409037E+00 -0.146851794834024E-01  0.776622627211334E+00 -0.146939339449533E-01
  0.775808590901956E+00 -0.139425776112852E-01  0.775463006531137E+00 -0.141345789184912E-01  0.775453027428052E+00 -0.141433663010939E-01
  0.774642372312875E+00 -0.133865122653079E-01  0.774293394654101E+00 -0.135788410864980E-01  0.774283308159424E+00 -0.135876608463300E-01
  0.773476030217009E+00 -0.128253318706540E-01  0.773123645794179E+00 -0.130179719265765E-01  0.773113451421235E+00 -0.130268235175521E-01
  0.772309546687950E+00 -0.122590423289817E-01  0.771953742018191E+00 -0.124519772721206E-01  0.771943439279807E+00 -0.124608601458930E-01
  0.771142903847685E+00 -0.116876494391480E-01  0.770783665440141E+00 -0.118808628541131E-01  0.770773253848612E+00 -0.118897764600768E-01
  0.769976083863285E+00 -0.111111589004951E-01  0.769613398217905E+00 -0.113046343044127E-01  0.769602877284965E+00 -0.113135780897059E-01
  0.768809068943671E+00 -0.105295763160749E-01  0.768442922549986E+00 -0.107232971589796E-01  0.768432291786771E+00 -0.107322705684871E-01
  0.767641841336440E+00 -0.994290719581657E-02  0.767272220672333E+00 -0.101368568610434E-01  0.767261479589349E+00 -0.101458593374000E-01
  0.766474383324759E+00 -0.935115695963795E-02  0.766101274855232E+00 -0.954531876421601E-02  0.766090422962322E+00 -0.955434974780952E-02
  0.765306677224325E+00 -0.875433094050308E-02  0.764930067400254E+00 -0.894868813555055E-02  0.764919104206560E+00 -0.895774706452565E-02
  0.764138705380380E+00 -0.815243438742848E-02  0.763758580637262E+00 -0.834697015854920E-02  0.763747505651192E+00 -0.835605646881122E-02
  0.762970450164785E+00 -0.754547246844030E-02  0.762586796921484E+00 -0.774016993612213E-02  0.762575609650674E+00 -0.774928306134117E-02
  0.761801893973158E+00 -0.693345027348373E-02  0.761414698630635E+00 -0.712829249349901E-02  0.761403398581915E+00 -0.713743186511433E-02
  0.760633019222060E+00 -0.631637281728715E-02  0.760242268162101E+00 -0.651134278109536E-02  0.760230854841455E+00 -0.652050782831999E-02
  0.759463808346240E+00 -0.569424504218285E-02  0.759069487930169E+00 -0.588932567733581E-02  0.759057960842700E+00 -0.589851582716144E-02
  0.758294243795927E+00 -0.506707182088566E-02  0.757896340363318E+00 -0.526224599143538E-02  0.757884699013208E+00 -0.527146066863747E-02
  0.757124308034173E+00 -0.443485795923195E-02  0.756722807901551E+00 -0.463010846614144E-02  0.756711051792022E+00 -0.463934709328458E-02
  0.755953983534253E+00 -0.379760819887991E-02  0.755548872993780E+00 -0.399291778043714E-02  0.755537001627059E+00 -0.400217977788069E-02
  0.754783252777101E+00 -0.315532721997345E-02  0.754374518095264E+00 -0.335067855220864E-02  0.754362530972537E+00 -0.335996333811261E-02
  0.753612098248798E+00 -0.250801964377067E-02  0.753199725665078E+00 -0.270339534087725E-02  0.753187622286454E+00 -0.271270233120841E-02
  0.752440502438106E+00 -0.185569003523906E-02  0.752024478163643E+00 -0.205107264999834E-02  0.752012258028111E+00 -0.206040125853661E-02
  0.751268447834041E+00 -0.119834290561807E-02  0.750848758050288E+00 -0.139371492982811E-02  0.750836420655678E+00 -0.140306456817325E-02
  0.750095916923491E+00 -0.535982714951534E-03  0.749672547780859E+00 -0.731326579860181E-03  0.749660092623798E+00 -0.740696657438644E-03
  0.748922892188878E+00  0.131386125409697E-03  0.748495829805369E+00 -0.639119513327900E-04  0.748483256381238E+00 -0.733018754049378E-04
  0.747749356105849E+00  0.803759250332895E-03  0.747318586565683E+00  0.608524650291598E-03  0.747305894368578E+00  0.599115474624075E-03
  0.746575291141020E+00  0.148113233845535E-02  0.746140800493249E+00  0.128597896287321E-02  0.746127989015964E+00  0.127655113266686E-02
  0.745400679749747E+00  0.216350110976162E-02  0.744962454006857E+00  0.196844676516700E-02  0.744949522740818E+00  0.195900087962240E-02
  0.744225504373939E+00  0.285086132318526E-02  0.743783529510446E+00  0.265592387441888E-02  0.743770477945661E+00  0.264646053487150E-02
  0.743049747439903E+00  0.354320877423316E-02  0.742604009390936E+00  0.334840614398441E-02  0.742590837015950E+00  0.333892595389604E-02
  0.741873391356228E+00  0.424053929263219E-02  0.741423876016098E+00  0.404588946096943E-02  0.741410582317948E+00  0.403639302591937E-02
  0.740696418511696E+00  0.494284873999642E-02  0.740243111732464E+00  0.474836974389114E-02  0.740229696196631E+00  0.473885767156708E-02
  0.739518811273236E+00  0.565013300751390E-02  0.739061698863259E+00  0.545584294035842E-02  0.739048160973624E+00  0.544631584054696E-02
  0.738340551983900E+00  0.636238801365247E-02  0.737879619706371E+00  0.616830502477091E-02  0.737865958945165E+00  0.615876350934789E-02
  0.737161622960876E+00  0.707960970188268E-02  0.736696856532352E+00  0.688575199603500E-02  0.736683072380112E+00  0.687619667895543E-02
  0.735982006493530E+00  0.780179403841779E-02  0.735513391582448E+00  0.760817987529663E-02  0.735499483517967E+00  0.759861137258438E-02
  0.734801684841479E+00  0.852893700996910E-02  0.734329207066663E+00  0.833558470368915E-02  0.734315174566937E+00  0.832600363342621E-02
  0.733620640232689E+00  0.926103462151619E-02  0.733144285161840E+00  0.906796254009581E-02  0.733130127702026E+00  0.905836952241138E-02
  0.732438854861605E+00  0.999808289409078E-02  0.731958608009785E+00  0.980530945892560E-02  0.731944325063145E+00  0.979570511598471E-02
  0.731256310887310E+00  0.107400778625738E-01  0.730772157715410E+00  0.105476215479021E-01  0.730757748753265E+00  0.105380065038940E-01
  0.730072990431708E+00  0.114870155735040E-01  0.729584916344904E+00  0.112948949058635E-01  0.729570380836578E+00  0.112852697869896E-01
  0.728888875577730E+00  0.122388920828984E-01  0.728396865923930E+00  0.120471256405743E-01  0.728382203336705E+00  0.120374910750357E-01
  0.727703948367578E+00  0.129957034540824E-01  0.727207988435854E+00  0.128043098665461E-01  0.727193198234911E+00  0.127946664845313E-01
  0.726518190800980E+00  0.137574457555302E-01  0.726018265819987E+00  0.135664437028691E-01  0.726003347468356E+00  0.135567921365403E-01
  0.725331584833481E+00  0.145241150587133E-01  0.724827679969862E+00  0.143335232710503E-01  0.724812632928373E+00  0.143238641545304E-01
  0.724144112374751E+00  0.152957074359576E-01  0.723636212731536E+00  0.151055446928611E-01  0.723621036458757E+00  0.150958786622197E-01
  0.722955755286918E+00  0.160722189583073E-01  0.722443845901904E+00  0.158825040881909E-01  0.722428539854092E+00  0.158728317814301E-01
  0.721766495382932E+00  0.168536456933957E-01  0.721250561227049E+00  0.166643975729071E-01  0.721235124858095E+00  0.166547196299470E-01
  0.720576314424941E+00  0.176399837033220E-01  0.720056340400611E+00  0.174512212567212E-01  0.720040773161981E+00  0.174415383193844E-01
  0.719385194122695E+00  0.184312290425322E-01  0.718861165062171E+00  0.182429712410587E-01  0.718845466402853E+00  0.182332839530555E-01
  0.718193116131974E+00  0.192273777557062E-01  0.717665016795672E+00  0.190396436169343E-01  0.717649186162118E+00  0.190299526238462E-01