 VARIABLES =  $x$  $\epsilon=10^{-3}$  $x$2  $\epsilon=10^{-4}$  $x$3  $\epsilon=10^{-5}$
 ZONE I=        8001 ,DATAPACKING=POINT
  0.994000000000000E+00  0.000000000000000E+00  0.994000000000000E+00  0.000000000000000E+00  0.994000000000000E+00  0.000000000000000E+00
  0.993342050962620E+00 -0.421103300086410E-02  0.993342050962620E+00 -0.421103300086410E-02  0.993342050962620E+00 -0.421103300086410E-02
  0.991795523804914E+00 -0.763542259201424E-02  0.991795523804914E+00 -0.763542259201424E-02  0.991795523804914E+00 -0.763542259201424E-02
  0.989850923744762E+00 -0.104868868215485E-01  0.989850923744762E+00 -0.104868868215485E-01  0.989850923744762E+00 -0.104868868215485E-01
  0.987778872721346E+00 -0.128144569138557E-01  0.987778872721346E+00 -0.128144569138557E-01  0.987778872721346E+00 -0.128144569138557E-01
  0.985677971873817E+00 -0.147929535917705E-01  0.985677971873817E+00 -0.147929535917705E-01  0.985677971873817E+00 -0.147929535917705E-01
  0.983651996615357E+00 -0.165336603544380E-01  0.983651996615357E+00 -0.165336603544380E-01  0.983651996615357E+00 -0.165336603544380E-01
  0.981650625081832E+00 -0.180967228075852E-01  0.981650625081832E+00 -0.180967228075852E-01  0.981650625081832E+00 -0.180967228075852E-01
  0.979685002408145E+00 -0.195072440034340E-01  0.979685002408145E+00 -0.195072440034340E-01  0.979685002408145E+00 -0.195072440034340E-01
  0.977762499204553E+00 -0.207882496532472E-01  0.977762499204553E+00 -0.207882496532472E-01  0.977762499204553E+00 -0.207882496532472E-01
  0.975878138162257E+00 -0.219667212123742E-01  0.975878138162257E+00 -0.219667212123742E-01  0.975878138162257E+00 -0.219667212123742E-01
  0.974031531011755E+00 -0.230573647511759E-01  0.974031531011755E+00 -0.230573647511759E-01  0.974031531011755E+00 -0.230573647511759E-01
  0.972219789864947E+00 -0.240734607326354E-01  0.972219789864947E+00 -0.240734607326354E-01  0.972219789864947E+00 -0.240734607326354E-01
  0.970440587261387E+00 -0.250240916927598E-01  0.970440587261387E+00 -0.250240916927598E-01  0.970440587261387E+00 -0.250240916927598E-01
  0.968691511163319E+00 -0.259174615860466E-01  0.968691511163319E+00 -0.259174615860466E-01  0.968691511163319E+00 -0.259174615860466E-01
  0.966970487883249E+00 -0.267597115044094E-01  0.966970487883249E+00 -0.267597115044094E-01  0.966970487883249E+00 -0.267597115044094E-01
  0.965275549157009E+00 -0.275561022245397E-01  0.965275549157009E+00 -0.275561022245397E-01  0.965275549157009E+00 -0.275561022245397E-01
  0.963604947947206E+00 -0.283109467044151E-01  0.963604947947206E+00 -0.283109467044151E-01  0.963604947947206E+00 -0.283109467044151E-01
  0.961957082999808E+00 -0.290279107904239E-01  0.961957082999808E+00 -0.290279107904239E-01  0.961957082999808E+00 -0.290279107904239E-01
  0.960330513007861E+00 -0.297101060796640E-01  0.960330513007861E+00 -0.297101060796640E-01  0.960330513007861E+00 -0.297101060796640E-01
  0.958723927270329E+00 -0.303602115221867E-01  0.958723927270329E+00 -0.303602115221867E-01  0.958723927270329E+00 -0.303602115221867E-01
  0.957136136120144E+00 -0.309805469197977E-01  0.957136136120144E+00 -0.309805469197977E-01  0.957136136120144E+00 -0.309805469197977E-01
  0.955566055803729E+00 -0.315731376187201E-01  0.955566055803729E+00 -0.315731376187201E-01  0.955566055803729E+00 -0.315731376187201E-01
  0.954012697222664E+00 -0.321397629144971E-01  0.954012697222664E+00 -0.321397629144971E-01  0.954012697222664E+00 -0.321397629144971E-01
  0.952475155268758E+00 -0.326819955909936E-01  0.952475155268758E+00 -0.326819955909936E-01  0.952475155268758E+00 -0.326819955909936E-01
  0.950952599715684E+00 -0.332012334675653E-01  0.950952599715684E+00 -0.332012334675653E-01  0.950952599715684E+00 -0.332012334675653E-01
  0.949444267154358E+00 -0.336987251667508E-01  0.949444267154358E+00 -0.336987251667508E-01  0.949444267154358E+00 -0.336987251667508E-01
  0.947949453958861E+00 -0.341755912215413E-01  0.947949453958861E+00 -0.341755912215413E-01  0.947949453958861E+00 -0.341755912215413E-01
  0.946467510113509E+00 -0.346328415397352E-01  0.946467510113509E+00 -0.346328415397352E-01  0.946467510113509E+00 -0.346328415397352E-01
  0.944997833798795E+00 -0.350713899482938E-01  0.944997833798795E+00 -0.350713899482938E-01  0.944997833798795E+00 -0.350713899482938E-01
  0.943539866630873E+00 -0.354920663916401E-01  0.943539866630873E+00 -0.354920663916401E-01  0.943539866630873E+00 -0.354920663916401E-01
  0.942093089467867E+00 -0.358956272258775E-01  0.942093089467867E+00 -0.358956272258775E-01  0.942093089467867E+00 -0.358956272258775E-01
  0.940657018706723E+00 -0.362827639575921E-01  0.940657018706723E+00 -0.362827639575921E-01  0.940657018706723E+00 -0.362827639575921E-01
  0.939231203005494E+00 -0.366541107029767E-01  0.939231203005494E+00 -0.366541107029767E-01  0.939231203005494E+00 -0.366541107029767E-01
  0.937815220375067E+00 -0.370102505874958E-01  0.937815220375067E+00 -0.370102505874958E-01  0.937815220375067E+00 -0.370102505874958E-01
  0.936408675592374E+00 -0.373517212631140E-01  0.936408675592374E+00 -0.373517212631140E-01  0.936408675592374E+00 -0.373517212631140E-01
  0.935011197893941E+00 -0.376790196863891E-01  0.935011197893941E+00 -0.376790196863891E-01  0.935011197893941E+00 -0.376790196863891E-01
  0.933622438914451E+00 -0.379926062741706E-01  0.933622438914451E+00 -0.379926062741706E-01  0.933622438914451E+00 -0.379926062741706E-01
  0.932242070839954E+00 -0.382929085325801E-01  0.932242070839954E+00 -0.382929085325801E-01  0.932242070839954E+00 -0.382929085325801E-01
  0.930869784749553E+00 -0.385803242381340E-01  0.930869784749553E+00 -0.385803242381340E-01  0.930869784749553E+00 -0.385803242381340E-01
  0.929505289123010E+00 -0.388552242363559E-01  0.929505289123010E+00 -0.388552242363559E-01  0.929505289123010E+00 -0.388552242363559E-01
  0.928148308494716E+00 -0.391179549123093E-01  0.928148308494716E+00 -0.391179549123093E-01  0.928148308494716E+00 -0.391179549123093E-01
  0.926798582237124E+00 -0.393688403786003E-01  0.926798582237124E+00 -0.393688403786003E-01  0.926798582237124E+00 -0.393688403786003E-01
  0.925455863458929E+00 -0.396081844191502E-01  0.925455863458929E+00 -0.396081844191502E-01  0.925455863458929E+00 -0.396081844191502E-01
  0.924119918005185E+00 -0.398362722210756E-01  0.924119918005185E+00 -0.398362722210756E-01  0.924119918005185E+00 -0.398362722210756E-01
  0.922790523548190E+00 -0.400533719220980E-01  0.922790523548190E+00 -0.400533719220980E-01  0.922790523548190E+00 -0.400533719220980E-01
  0.921467468759366E+00 -0.402597359968264E-01  0.921467468759366E+00 -0.402597359968264E-01  0.921467468759366E+00 -0.402597359968264E-01
  0.920150552553541E+00 -0.404556025018569E-01  0.920150552553541E+00 -0.404556025018569E-01  0.920150552553541E+00 -0.404556025018569E-01
  0.918839583398132E+00 -0.406411961967969E-01  0.918839583398132E+00 -0.406411961967969E-01  0.918839583398132E+00 -0.406411961967969E-01
  0.917534378680566E+00 -0.408167295559303E-01  0.917534378680566E+00 -0.408167295559303E-01  0.917534378680566E+00 -0.408167295559303E-01
  0.916234764128097E+00 -0.409824036832324E-01  0.916234764128097E+00 -0.409824036832324E-01  0.916234764128097E+00 -0.409824036832324E-01
  0.914940573274850E+00 -0.411384091417410E-01  0.914940573274850E+00 -0.411384091417410E-01  0.914940573274850E+00 -0.411384091417410E-01
  0.913651646971483E+00 -0.412849267068413E-01  0.913651646971483E+00 -0.412849267068413E-01  0.913651646971483E+00 -0.412849267068413E-01
  0.912367832933410E+00 -0.414221280517976E-01  0.912367832933410E+00 -0.414221280517976E-01  0.912367832933410E+00 -0.414221280517976E-01
  0.911088985323948E+00 -0.415501763728043E-01  0.911088985323948E+00 -0.415501763728043E-01  0.911088985323948E+00 -0.415501763728043E-01
  0.909814964369164E+00 -0.416692269599338E-01  0.909814964369164E+00 -0.416692269599338E-01  0.909814964369164E+00 -0.416692269599338E-01
  0.908545636001529E+00 -0.417794277195769E-01  0.908545636001529E+00 -0.417794277195769E-01  0.908545636001529E+00 -0.417794277195769E-01
  0.907280871529801E+00 -0.418809196533058E-01  0.907280871529801E+00 -0.418809196533058E-01  0.907280871529801E+00 -0.418809196533058E-01
  0.906020547332818E+00 -0.419738372975078E-01  0.906020547332818E+00 -0.419738372975078E-01  0.906020547332818E+00 -0.419738372975078E-01
  0.904764544575130E+00 -0.420583091276377E-01  0.904764544575130E+00 -0.420583091276377E-01  0.904764544575130E+00 -0.420583091276377E-01
  0.903512748942589E+00 -0.421344579304997E-01  0.903512748942589E+00 -0.421344579304997E-01  0.903512748942589E+00 -0.421344579304997E-01
  0.902265050396226E+00 -0.422024011475881E-01  0.902265050396226E+00 -0.422024011475881E-01  0.902265050396226E+00 -0.422024011475881E-01
  0.901021342942889E+00 -0.422622511921845E-01  0.901021342942889E+00 -0.422622511921845E-01  0.901021342942889E+00 -0.422622511921845E-01
  0.899781524421266E+00 -0.423141157426179E-01  0.899781524421266E+00 -0.423141157426179E-01  0.899781524421266E+00 -0.423141157426179E-01
  0.898545496302064E+00 -0.423580980138375E-01  0.898545496302064E+00 -0.423580980138375E-01  0.898545496302064E+00 -0.423580980138375E-01
  0.897313163501203E+00 -0.423942970092244E-01  0.897313163501203E+00 -0.423942970092244E-01  0.897313163501203E+00 -0.423942970092244E-01
  0.896084434205009E+00 -0.424228077543691E-01  0.896084434205009E+00 -0.424228077543691E-01  0.896084434205009E+00 -0.424228077543691E-01
  0.894859219706486E+00 -0.424437215143667E-01  0.894859219706486E+00 -0.424437215143667E-01  0.894859219706486E+00 -0.424437215143667E-01
  0.893637434251807E+00 -0.424571259960273E-01  0.893637434251807E+00 -0.424571259960273E-01  0.893637434251807E+00 -0.424571259960273E-01
  0.892418994896265E+00 -0.424631055362613E-01  0.892418994896265E+00 -0.424631055362613E-01  0.892418994896265E+00 -0.424631055362613E-01
  0.891203821368976E+00 -0.424617412777763E-01  0.891203821368976E+00 -0.424617412777763E-01  0.891203821368976E+00 -0.424617412777763E-01
  0.889991835945695E+00 -0.424531113331146E-01  0.889991835945695E+00 -0.424531113331146E-01  0.889991835945695E+00 -0.424531113331146E-01
  0.888782963329157E+00 -0.424372909379650E-01  0.888782963329157E+00 -0.424372909379650E-01  0.888782963329157E+00 -0.424372909379650E-01
  0.887577130536404E+00 -0.424143525945902E-01  0.887577130536404E+00 -0.424143525945902E-01  0.887577130536404E+00 -0.424143525945902E-01
  0.886374266792608E+00 -0.423843662061426E-01  0.886374266792608E+00 -0.423843662061426E-01  0.886374266792608E+00 -0.423843662061426E-01
  0.885174303430936E+00 -0.423473992025623E-01  0.885174303430936E+00 -0.423473992025623E-01  0.885174303430936E+00 -0.423473992025623E-01
  0.883977173798038E+00 -0.423035166586975E-01  0.883977173798038E+00 -0.423035166586975E-01  0.883977173798038E+00 -0.423035166586975E-01
  0.882782813164783E+00 -0.422527814052246E-01  0.882782813164783E+00 -0.422527814052246E-01  0.882782813164783E+00 -0.422527814052246E-01
  0.881591158641886E+00 -0.421952541328995E-01  0.881591158641886E+00 -0.421952541328995E-01  0.881591158641886E+00 -0.421952541328995E-01
  0.880402149100104E+00 -0.421309934906245E-01  0.880402149100104E+00 -0.421309934906245E-01  0.880402149100104E+00 -0.421309934906245E-01
  0.879215725094693E+00 -0.420600561777737E-01  0.879215725094693E+00 -0.420600561777737E-01  0.879215725094693E+00 -0.420600561777737E-01
  0.878031828793867E+00 -0.419824970311840E-01  0.878031828793867E+00 -0.419824970311840E-01  0.878031828793867E+00 -0.419824970311840E-01
  0.876850403910984E+00 -0.418983691071844E-01  0.876850403910984E+00 -0.418983691071844E-01  0.876850403910984E+00 -0.418983691071844E-01
  0.875671395640239E+00 -0.418077237590062E-01  0.875671395640239E+00 -0.418077237590062E-01  0.875671395640239E+00 -0.418077237590062E-01
  0.874494750595632E+00 -0.417106107098894E-01  0.874494750595632E+00 -0.417106107098894E-01  0.874494750595632E+00 -0.417106107098894E-01
  0.873320416753012E+00 -0.416070781221754E-01  0.873320416753012E+00 -0.416070781221754E-01  0.873320416753012E+00 -0.416070781221754E-01
  0.872148343395020E+00 -0.414971726626523E-01  0.872148343395020E+00 -0.414971726626523E-01  0.872148343395020E+00 -0.414971726626523E-01
  0.870978481058737E+00 -0.413809395644008E-01  0.870978481058737E+00 -0.413809395644008E-01  0.870978481058737E+00 -0.413809395644008E-01
  0.869810781485883E+00 -0.412584226853670E-01  0.869810781485883E+00 -0.412584226853670E-01  0.869810781485883E+00 -0.412584226853670E-01
  0.868645197575423E+00 -0.411296645638731E-01  0.868645197575423E+00 -0.411296645638731E-01  0.868645197575423E+00 -0.411296645638731E-01
  0.867481683338429E+00 -0.409947064712609E-01  0.867481683338429E+00 -0.409947064712609E-01  0.867481683338429E+00 -0.409947064712609E-01
  0.866320193855072E+00 -0.408535884618472E-01  0.866320193855072E+00 -0.408535884618472E-01  0.866320193855072E+00 -0.408535884618472E-01
  0.865160685233618E+00 -0.407063494203588E-01  0.865160685233618E+00 -0.407063494203588E-01  0.865160685233618E+00 -0.407063494203588E-01
  0.864003114571318E+00 -0.405530271070024E-01  0.864003114571318E+00 -0.405530271070024E-01  0.864003114571318E+00 -0.405530271070024E-01
  0.862847439917086E+00 -0.403936582003124E-01  0.862847439917086E+00 -0.403936582003124E-01  0.862847439917086E+00 -0.403936582003124E-01
  0.861693620235861E+00 -0.402282783379096E-01  0.861693620235861E+00 -0.402282783379096E-01  0.861693620235861E+00 -0.402282783379096E-01
  0.860541615374564E+00 -0.400569221552976E-01  0.860541615374564E+00 -0.400569221552976E-01  0.860541615374564E+00 -0.400569221552976E-01
  0.859391386029560E+00 -0.398796233228090E-01  0.859391386029560E+00 -0.398796233228090E-01  0.859391386029560E+00 -0.398796233228090E-01
  0.858242893715548E+00 -0.396964145808118E-01  0.858242893715548E+00 -0.396964145808118E-01  0.858242893715548E+00 -0.396964145808118E-01
  0.857096100735797E+00 -0.395073277732753E-01  0.857096100735797E+00 -0.395073277732753E-01  0.857096100735797E+00 -0.395073277732753E-01
  0.855950970153660E+00 -0.393123938797887E-01  0.855950970153660E+00 -0.393123938797887E-01  0.855950970153660E+00 -0.393123938797887E-01
  0.854807465765304E+00 -0.391116430461204E-01  0.854807465765304E+00 -0.391116430461204E-01  0.854807465765304E+00 -0.391116430461204E-01
  0.853665552073576E+00 -0.389051046133999E-01  0.853665552073576E+00 -0.389051046133999E-01  0.853665552073576E+00 -0.389051046133999E-01
  0.852525194262967E+00 -0.386928071459977E-01  0.852525194262967E+00 -0.386928071459977E-01  0.852525194262967E+00 -0.386928071459977E-01
  0.851386358175606E+00 -0.384747784581747E-01  0.851386358175606E+00 -0.384747784581747E-01  0.851386358175606E+00 -0.384747784581747E-01
  0.850249010288233E+00 -0.382510456395691E-01  0.850249010288233E+00 -0.382510456395691E-01  0.850249010288233E+00 -0.382510456395691E-01
  0.849113117690101E+00 -0.380216350795817E-01  0.849113117690101E+00 -0.380216350795817E-01  0.849113117690101E+00 -0.380216350795817E-01
  0.847978648061773E+00 -0.377865724907193E-01  0.847978648061773E+00 -0.377865724907193E-01  0.847978648061773E+00 -0.377865724907193E-01
  0.846845569654743E+00 -0.375458829309509E-01  0.846845569654743E+00 -0.375458829309509E-01  0.846845569654743E+00 -0.375458829309509E-01
  0.845713851271879E+00 -0.372995908251286E-01  0.845713851271879E+00 -0.372995908251286E-01  0.845713851271879E+00 -0.372995908251286E-01
  0.844583462248606E+00 -0.370477199855212E-01  0.844583462248606E+00 -0.370477199855212E-01  0.844583462248606E+00 -0.370477199855212E-01
  0.843454372434829E+00 -0.367902936315062E-01  0.843454372434829E+00 -0.367902936315062E-01  0.843454372434829E+00 -0.367902936315062E-01
  0.842326552177540E+00 -0.365273344084635E-01  0.842326552177540E+00 -0.365273344084635E-01  0.842326552177540E+00 -0.365273344084635E-01
  0.841199972304084E+00 -0.362588644059105E-01  0.841199972304084E+00 -0.362588644059105E-01  0.841199972304084E+00 -0.362588644059105E-01
  0.840074604106053E+00 -0.359849051749165E-01  0.840074604106053E+00 -0.359849051749165E-01  0.840074604106053E+00 -0.359849051749165E-01
  0.838950419323775E+00 -0.357054777448331E-01  0.838950419323775E+00 -0.357054777448331E-01  0.838950419323775E+00 -0.357054777448331E-01
  0.837827390131377E+00 -0.354206026393726E-01  0.837827390131377E+00 -0.354206026393726E-01  0.837827390131377E+00 -0.354206026393726E-01
  0.836705489122391E+00 -0.351302998920681E-01  0.836705489122391E+00 -0.351302998920681E-01  0.836705489122391E+00 -0.351302998920681E-01
  0.835584689295881E+00 -0.348345890611430E-01  0.835584689295881E+00 -0.348345890611430E-01  0.835584689295881E+00 -0.348345890611430E-01
  0.834464964043060E+00 -0.345334892438205E-01  0.834464964043060E+00 -0.345334892438205E-01  0.834464964043060E+00 -0.345334892438205E-01
  0.833346287134392E+00 -0.342270190900980E-01  0.833346287134392E+00 -0.342270190900980E-01  0.833346287134392E+00 -0.342270190900980E-01
  0.832228632707137E+00 -0.339151968160126E-01  0.832228632707137E+00 -0.339151968160126E-01  0.832228632707137E+00 -0.339151968160126E-01
  0.831111975253335E+00 -0.335980402164207E-01  0.831111975253335E+00 -0.335980402164207E-01  0.831111975253335E+00 -0.335980402164207E-01
  0.829996289608206E+00 -0.332755666773154E-01  0.829996289608206E+00 -0.332755666773154E-01  0.829996289608206E+00 -0.332755666773154E-01
  0.828881550938940E+00 -0.329477931877019E-01  0.828881550938940E+00 -0.329477931877019E-01  0.828881550938940E+00 -0.329477931877019E-01
  0.827767734733873E+00 -0.326147363510518E-01  0.827767734733873E+00 -0.326147363510518E-01  0.827767734733873E+00 -0.326147363510518E-01
  0.826654816792020E+00 -0.322764123963550E-01  0.826654816792020E+00 -0.322764123963550E-01  0.826654816792020E+00 -0.322764123963550E-01
  0.825542773212964E+00 -0.319328371887879E-01  0.825542773212964E+00 -0.319328371887879E-01  0.825542773212964E+00 -0.319328371887879E-01
  0.824431580387073E+00 -0.315840262400139E-01  0.824431580387073E+00 -0.315840262400139E-01  0.824431580387073E+00 -0.315840262400139E-01
  0.823321214986036E+00 -0.312299947181343E-01  0.823321214986036E+00 -0.312299947181343E-01  0.823321214986036E+00 -0.312299947181343E-01
  0.822211653953708E+00 -0.308707574573033E-01  0.822211653953708E+00 -0.308707574573033E-01  0.822211653953708E+00 -0.308707574573033E-01
  0.821102874497249E+00 -0.305063289670228E-01  0.821102874497249E+00 -0.305063289670228E-01  0.821102874497249E+00 -0.305063289670228E-01
  0.819994854078540E+00 -0.301367234411305E-01  0.819994854078540E+00 -0.301367234411305E-01  0.819994854078540E+00 -0.301367234411305E-01
  0.818887570405878E+00 -0.297619547664951E-01  0.818887570405878E+00 -0.297619547664951E-01  0.818887570405878E+00 -0.297619547664951E-01
  0.817781001425921E+00 -0.293820365314299E-01  0.817781001425921E+00 -0.293820365314299E-01  0.817781001425921E+00 -0.293820365314299E-01
  0.816675125315887E+00 -0.289969820338390E-01  0.816675125315887E+00 -0.289969820338390E-01  0.816675125315887E+00 -0.289969820338390E-01
  0.815569920475994E+00 -0.286068042891047E-01  0.815569920475994E+00 -0.286068042891047E-01  0.815569920475994E+00 -0.286068042891047E-01
  0.814465365522127E+00 -0.282115160377295E-01  0.814465365522127E+00 -0.282115160377295E-01  0.814465365522127E+00 -0.282115160377295E-01
  0.813361439278724E+00 -0.278111297527410E-01  0.813361439278724E+00 -0.278111297527410E-01  0.813361439278724E+00 -0.278111297527410E-01
  0.812258120771880E+00 -0.274056576468710E-01  0.812258120771880E+00 -0.274056576468710E-01  0.812258120771880E+00 -0.274056576468710E-01
  0.811155389222647E+00 -0.269951116795172E-01  0.811155389222647E+00 -0.269951116795172E-01  0.811155389222647E+00 -0.269951116795172E-01
  0.810053224040542E+00 -0.265795035634973E-01  0.810053224040542E+00 -0.265795035634973E-01  0.810053224040542E+00 -0.265795035634973E-01
  0.808951604817230E+00 -0.261588447716025E-01  0.808951604817230E+00 -0.261588447716025E-01  0.808951604817230E+00 -0.261588447716025E-01
  0.807850511320399E+00 -0.257331465429603E-01  0.807850511320399E+00 -0.257331465429603E-01  0.807850511320399E+00 -0.257331465429603E-01
  0.806749923487805E+00 -0.253024198892135E-01  0.806749923487805E+00 -0.253024198892135E-01  0.806749923487805E+00 -0.253024198892135E-01
  0.805649821421486E+00 -0.248666756005225E-01  0.805649821421486E+00 -0.248666756005225E-01  0.805649821421486E+00 -0.248666756005225E-01
  0.804550185382140E+00 -0.244259242513979E-01  0.804550185382140E+00 -0.244259242513979E-01  0.804550185382140E+00 -0.244259242513979E-01
  0.803450995783656E+00 -0.239801762063718E-01  0.803450995783656E+00 -0.239801762063718E-01  0.803450995783656E+00 -0.239801762063718E-01
  0.802352233187797E+00 -0.235294416255115E-01  0.802352233187797E+00 -0.235294416255115E-01  0.802352233187797E+00 -0.235294416255115E-01
  0.801253878299029E+00 -0.230737304697837E-01  0.801253878299029E+00 -0.230737304697837E-01  0.801253878299029E+00 -0.230737304697837E-01
  0.800155911959486E+00 -0.226130525062753E-01  0.800155911959486E+00 -0.226130525062753E-01  0.800155911959486E+00 -0.226130525062753E-01
  0.799058315144071E+00 -0.221474173132746E-01  0.799058315144071E+00 -0.221474173132746E-01  0.799058315144071E+00 -0.221474173132746E-01
  0.797961068955694E+00 -0.216768342852198E-01  0.797961068955694E+00 -0.216768342852198E-01  0.797961068955694E+00 -0.216768342852198E-01
  0.796864154620620E+00 -0.212013126375200E-01  0.796864154620620E+00 -0.212013126375200E-01  0.796864154620620E+00 -0.212013126375200E-01
  0.795767553483952E+00 -0.207208614112528E-01  0.795767553483952E+00 -0.207208614112528E-01  0.795767553483952E+00 -0.207208614112528E-01
  0.794671247005223E+00 -0.202354894777432E-01  0.794671247005223E+00 -0.202354894777432E-01  0.794671247005223E+00 -0.202354894777432E-01
  0.793575216754104E+00 -0.197452055430297E-01  0.793575216754104E+00 -0.197452055430297E-01  0.793575216754104E+00 -0.197452055430297E-01
  0.792479444406216E+00 -0.192500181522200E-01  0.792479444406216E+00 -0.192500181522200E-01  0.792479444406216E+00 -0.192500181522200E-01
  0.791383911739052E+00 -0.187499356937423E-01  0.791383911739052E+00 -0.187499356937423E-01  0.791383911739052E+00 -0.187499356937423E-01
  0.790288600627998E+00 -0.182449664034948E-01  0.790288600627998E+00 -0.182449664034948E-01  0.790288600627998E+00 -0.182449664034948E-01
  0.789193493042448E+00 -0.177351183688979E-01  0.789193493042448E+00 -0.177351183688979E-01  0.789193493042448E+00 -0.177351183688979E-01
  0.788098571042022E+00 -0.172203995328527E-01  0.788098571042022E+00 -0.172203995328527E-01  0.788098571042022E+00 -0.172203995328527E-01
  0.787003816772868E+00 -0.167008176976094E-01  0.787003816772868E+00 -0.167008176976094E-01  0.787003816772868E+00 -0.167008176976094E-01
  0.785909212464054E+00 -0.161763805285485E-01  0.785909212464054E+00 -0.161763805285485E-01  0.785909212464054E+00 -0.161763805285485E-01
  0.784814740424045E+00 -0.156470955578788E-01  0.784814740424045E+00 -0.156470955578788E-01  0.784814740424045E+00 -0.156470955578788E-01
  0.783720383037267E+00 -0.151129701882547E-01  0.783720383037267E+00 -0.151129701882547E-01  0.783720383037267E+00 -0.151129701882547E-01
  0.782626122760742E+00 -0.145740116963162E-01  0.782626122760742E+00 -0.145740116963162E-01  0.782626122760742E+00 -0.145740116963162E-01
  0.781531942120808E+00 -0.140302272361543E-01  0.781531942120808E+00 -0.140302272361543E-01  0.781531942120808E+00 -0.140302272361543E-01
  0.780437823709912E+00 -0.134816238427046E-01  0.780437823709912E+00 -0.134816238427046E-01  0.780437823709912E+00 -0.134816238427046E-01
  0.779343750183471E+00 -0.129282084350716E-01  0.779343750183471E+00 -0.129282084350716E-01  0.779343750183471E+00 -0.129282084350716E-01
  0.778249704256805E+00 -0.123699878197872E-01  0.778249704256805E+00 -0.123699878197872E-01  0.778249704256805E+00 -0.123699878197872E-01
  0.777155668702145E+00 -0.118069686940038E-01  0.777155668702145E+00 -0.118069686940038E-01  0.777155668702145E+00 -0.118069686940038E-01
  0.776061626345692E+00 -0.112391576486275E-01  0.776061626345692E+00 -0.112391576486275E-01  0.776061626345692E+00 -0.112391576486275E-01
  0.774967560064753E+00 -0.106665611713901E-01  0.774967560064753E+00 -0.106665611713901E-01  0.774967560064753E+00 -0.106665611713901E-01
  0.773873452784931E+00 -0.100891856498653E-01  0.773873452784931E+00 -0.100891856498653E-01  0.773873452784931E+00 -0.100891856498653E-01
  0.772779287477378E+00 -0.950703737442922E-02  0.772779287477378E+00 -0.950703737442922E-02  0.772779287477378E+00 -0.950703737442922E-02
  0.771685047156103E+00 -0.892012254116817E-02  0.771685047156103E+00 -0.892012254116817E-02  0.771685047156103E+00 -0.892012254116817E-02
  0.770590714875337E+00 -0.832844725473517E-02  0.770590714875337E+00 -0.832844725473517E-02  0.770590714875337E+00 -0.832844725473517E-02
  0.769496273726955E+00 -0.773201753115782E-02  0.769496273726955E+00 -0.773201753115782E-02  0.769496273726955E+00 -0.773201753115782E-02
  0.768401706837947E+00 -0.713083930059841E-02  0.768401706837947E+00 -0.713083930059841E-02  0.768401706837947E+00 -0.713083930059841E-02
  0.767306997367941E+00 -0.652491841006910E-02  0.767306997367941E+00 -0.652491841006910E-02  0.767306997367941E+00 -0.652491841006910E-02
  0.766212128506779E+00 -0.591426062610288E-02  0.766212128506779E+00 -0.591426062610288E-02  0.766212128506779E+00 -0.591426062610288E-02
  0.765117083472131E+00 -0.529887163738279E-02  0.765117083472131E+00 -0.529887163738279E-02  0.765117083472131E+00 -0.529887163738279E-02
  0.764021845507173E+00 -0.467875705733050E-02  0.764021845507173E+00 -0.467875705733050E-02  0.764021845507173E+00 -0.467875705733050E-02
  0.762926397878289E+00 -0.405392242665602E-02  0.762926397878289E+00 -0.405392242665602E-02  0.762926397878289E+00 -0.405392242665602E-02
  0.761830723872836E+00 -0.342437321586987E-02  0.761830723872836E+00 -0.342437321586987E-02  0.761830723872836E+00 -0.342437321586987E-02
  0.760734806796943E+00 -0.279011482775948E-02  0.760734806796943E+00 -0.279011482775948E-02  0.760734806796943E+00 -0.279011482775948E-02
  0.759638629973349E+00 -0.215115259983075E-02  0.759638629973349E+00 -0.215115259983075E-02  0.759638629973349E+00 -0.215115259983075E-02
  0.758542176739284E+00 -0.150749180671653E-02  0.758542176739284E+00 -0.150749180671653E-02  0.758542176739284E+00 -0.150749180671653E-02
  0.757445430444396E+00 -0.859137662553112E-03  0.757445430444396E+00 -0.859137662553112E-03  0.757445430444396E+00 -0.859137662553112E-03
  0.756348374448706E+00 -0.206095323326183E-03  0.756348374448706E+00 -0.206095323326183E-03  0.756348374448706E+00 -0.206095323326183E-03
  0.755250992120602E+00  0.451630110812970E-03  0.755250992120602E+00  0.451630110812970E-03  0.755250992120602E+00  0.451630110812970E-03
  0.754153266834876E+00  0.111403359325904E-02  0.754153266834876E+00  0.111403359325904E-02  0.754153266834876E+00  0.111403359325904E-02
  0.753055181970789E+00  0.178111012869178E-02  0.753055181970789E+00  0.178111012869178E-02  0.753055181970789E+00  0.178111012869178E-02
  0.751956720910173E+00  0.245285477084095E-02  0.751956720910173E+00  0.245285477084095E-02  0.751956720910173E+00  0.245285477084095E-02
  0.750857867035566E+00  0.312926262027589E-02  0.750857867035566E+00  0.312926262027589E-02  0.750857867035566E+00  0.312926262027589E-02
  0.749758603728378E+00  0.381032882221949E-02  0.749758603728378E+00  0.381032882221949E-02  0.749758603728378E+00  0.381032882221949E-02
  0.748658914367095E+00  0.449604856438443E-02  0.748658914367095E+00  0.449604856438443E-02  0.748658914367095E+00  0.449604856438443E-02
  0.747558782325501E+00  0.518641707483166E-02  0.747558782325501E+00  0.518641707483166E-02  0.747558782325501E+00  0.518641707483166E-02
  0.746458190970944E+00  0.588142961984966E-02  0.746458190970944E+00  0.588142961984966E-02  0.746458190970944E+00  0.588142961984966E-02
  0.745357123662623E+00  0.658108150185362E-02  0.745357123662623E+00  0.658108150185362E-02  0.745357123662623E+00  0.658108150185362E-02
  0.744255563749906E+00  0.728536805730371E-02  0.744255563749906E+00  0.728536805730371E-02  0.744255563749906E+00  0.728536805730371E-02
  0.743153494570676E+00  0.799428465464170E-02  0.743153494570676E+00  0.799428465464170E-02  0.743153494570676E+00  0.799428465464170E-02
  0.742050899449700E+00  0.870782669224462E-02  0.742050899449700E+00  0.870782669224462E-02  0.742050899449700E+00  0.870782669224462E-02
  0.740947761697037E+00  0.942598959639527E-02  0.740947761697037E+00  0.942598959639527E-02  0.740947761697037E+00  0.942598959639527E-02
  0.739844064606453E+00  0.101487688192683E-01  0.739844064606453E+00  0.101487688192683E-01  0.739844064606453E+00  0.101487688192683E-01
  0.738739791453880E+00  0.108761598369311E-01  0.738739791453880E+00  0.108761598369311E-01  0.738739791453880E+00  0.108761598369311E-01
  0.737634925495887E+00  0.116081581473593E-01  0.737634925495887E+00  0.116081581473593E-01  0.737634925495887E+00  0.116081581473593E-01
  0.736529449968182E+00  0.123447592684651E-01  0.736529449968182E+00  0.123447592684651E-01  0.736529449968182E+00  0.123447592684651E-01
  0.735423348084136E+00  0.130859587361389E-01  0.735423348084136E+00  0.130859587361389E-01  0.735423348084136E+00  0.130859587361389E-01
  0.734316603033328E+00  0.138317521023029E-01  0.734316603033328E+00  0.138317521023029E-01  0.734316603033328E+00  0.138317521023029E-01
  0.733209197980116E+00  0.145821349329755E-01  0.733209197980116E+00  0.145821349329755E-01  0.733209197980116E+00  0.145821349329755E-01
  0.732101116062231E+00  0.153371028063470E-01  0.732101116062231E+00  0.153371028063470E-01  0.732101116062231E+00  0.153371028063470E-01
  0.730992340389388E+00  0.160966513108654E-01  0.730992340389388E+00  0.160966513108654E-01  0.730992340389388E+00  0.160966513108654E-01