 VARIABLES =  $x$  $\epsilon=10^{-3}$  $x$2  $\epsilon=10^{-4}$  $x$3  $\epsilon=10^{-5}$
 ZONE I=        1501 ,DATAPACKING=POINT
  0.994000000000000E+00  0.000000000000000E+00  0.994000000000000E+00  0.000000000000000E+00  0.994000000000000E+00  0.000000000000000E+00
  0.984768644210028E+00 -0.152970626056319E-01  0.984749581169717E+00 -0.153785541109785E-01  0.984752912332633E+00 -0.153876766610909E-01
  0.974159393414499E+00 -0.222817009027016E-01  0.974094093385279E+00 -0.225242361703915E-01  0.974099471237240E+00 -0.225520169842238E-01
  0.964625207230270E+00 -0.268170735121271E-01  0.964483506005081E+00 -0.272542453897038E-01  0.964491510423200E+00 -0.273009610418215E-01
  0.955835201086453E+00 -0.301350899145033E-01  0.955588243955959E+00 -0.307840617313896E-01  0.955596085600298E+00 -0.308505960976961E-01
  0.947573747733740E+00 -0.326762283525330E-01  0.947195912807504E+00 -0.335464430255624E-01  0.947201405635769E+00 -0.336331000780400E-01
  0.939709155784706E+00 -0.346525668557482E-01  0.939177480067798E+00 -0.357491127669216E-01  0.939178813281962E+00 -0.358559458476719E-01
  0.932155473558891E+00 -0.361844064620704E-01  0.931449061990515E+00 -0.375095682444385E-01  0.931444674127823E+00 -0.376364962945692E-01
  0.924853165525730E+00 -0.373474704381657E-01  0.923952751615137E+00 -0.389015525129358E-01  0.923941257698822E+00 -0.390484105191449E-01
  0.917759002302650E+00 -0.381929816071049E-01  0.916646631115004E+00 -0.399747925588600E-01  0.916626777526383E+00 -0.401413567437863E-01
  0.910840396713497E+00 -0.387574671187638E-01  0.909499192849601E+00 -0.407646270286627E-01  0.909469827671131E+00 -0.409506287852980E-01
  0.904072027678421E+00 -0.390680448001748E-01  0.902486021450309E+00 -0.412971919623711E-01  0.902446074004666E+00 -0.415023261943393E-01
  0.897433720376136E+00 -0.391454945318240E-01  0.895587714380179E+00 -0.415924310801597E-01  0.895536180534770E+00 -0.418163615187531E-01
  0.890909056350198E+00 -0.390061503741737E-01  0.888788520649740E+00 -0.416659488085284E-01  0.888724451898931E+00 -0.419083115827932E-01
  0.884484428562599E+00 -0.386631225895496E-01  0.882075416543382E+00 -0.415302061752567E-01  0.881997911658029E+00 -0.417906123154335E-01
  0.878148378918690E+00 -0.381271182214510E-01  0.875437458356547E+00 -0.411953232954896E-01  0.875345656831824E+00 -0.414733605542038E-01
  0.871891121446465E+00 -0.374070104269631E-01  0.868865316945772E+00 -0.406696357919568E-01  0.868758393740670E+00 -0.409648700112467E-01
  0.865704191196903E+00 -0.365102446643284E-01  0.862350935238870E+00 -0.399600915294672E-01  0.862228096462911E+00 -0.402720676947769E-01
  0.859580180517413E+00 -0.354431355601389E-01  0.855887271093757E+00 -0.390725404089146E-01  0.855747750400174E+00 -0.394007834806331E-01
  0.853512537442648E+00 -0.342110885069173E-01  0.849468100762249E+00 -0.380119505729343E-01  0.849311156275213E+00 -0.383559661555453E-01
  0.847495409141081E+00 -0.328187681947791E-01  0.843087866260008E+00 -0.367825727618187E-01  0.842912777909672E+00 -0.371418476517040E-01
  0.841523518628748E+00 -0.312702289451123E-01  0.836741555115419E+00 -0.353880673704331E-01  0.836547622286503E+00 -0.357620700111682E-01
  0.835592066439513E+00 -0.295690170385166E-01  0.830424604378124E+00 -0.338316041774315E-01  0.830211143800319E+00 -0.342197850434037E-01
  0.829696651286584E+00 -0.277182521716264E-01  0.824132823063996E+00 -0.321159417247094E-01  0.823899166888661E+00 -0.325177336485207E-01
  0.823833205363315E+00 -0.257206931317167E-01  0.817862328791431E+00 -0.302434913231558E-01  0.817607822810911E+00 -0.306583097786251E-01
  0.817997941061256E+00 -0.235787913808781E-01  0.811609495468255E+00 -0.282163692942189E-01  0.811333497442873E+00 -0.286436126442907E-01
  0.812187306687888E+00 -0.212947352695590E-01  0.805370909674221E+00 -0.260364401065302E-01  0.805072787738597E+00 -0.264754898236689E-01
  0.806397949347835E+00 -0.188704869115779E-01  0.799143333951490E+00 -0.237053523948483E-01  0.798822465076797E+00 -0.241555732603143E-01
  0.800626683577282E+00 -0.163078132586428E-01  0.792923675630958E+00 -0.212245693660946E-01  0.792579444123530E+00 -0.216853096537008E-01
  0.794870464637436E+00 -0.136083125524426E-01  0.786708960130395E+00 -0.185953947459504E-01  0.786340756150051E+00 -0.190659863953945E-01
  0.789126365610173E+00 -0.107734370667087E-01  0.780496307891633E+00 -0.158189951604341E-01  0.780103525975350E+00 -0.162987539450061E-01
  0.783391557619159E+00 -0.780451285323281E-02  0.774282914299495E+00 -0.128964196535900E-01  0.773864951877854E+00 -0.133846453469355E-01
  0.777663292637969E+00 -0.470275705600477E-02  0.768066032059766E+00 -0.982861689665857E-02  0.767622287954990E+00 -0.103245934432914E-01
  0.771938888453687E+00 -0.146929324335755E-02  0.761842955617744E+00 -0.661645053307893E-02  0.761372828513265E+00 -0.711944622746463E-02
  0.766215715438229E+00  0.189483488000453E-02  0.755611007280509E+00 -0.326071301834532E-02  0.755113894152879E+00 -0.376998069760609E-02
  0.760491184845585E+00  0.538865108758970E-02  0.749367524770419E+00  0.237861752390117E-03  0.748842819275088E+00 -0.276915503215697E-03
  0.754762738405740E+00  0.901123533237723E-02  0.743109849988751E+00  0.387858678772882E-02  0.742556940791825E+00  0.335907737351951E-02
  0.749027839028194E+00  0.127617133371115E-01  0.736835318809765E+00  0.766081111384353E-02  0.736253587858318E+00  0.713736170055409E-02
  0.743283962462152E+00  0.166392469096463E-01  0.730541251759097E+00  0.115839094902718E-01  0.729930072483046E+00  0.110573266739975E-01
  0.737528589788329E+00  0.206430248463291E-01  0.724224945458109E+00  0.156472725849011E-01  0.723583680897007E+00  0.151183770479004E-01
  0.731759200640310E+00  0.247722543081936E-01  0.717883664738813E+00  0.198502974859300E-01  0.717211665587268E+00  0.193199235928962E-01
  0.725973267072519E+00  0.290261525724475E-01  0.711514635353395E+00  0.241923784451939E-01  0.710811237919179E+00  0.236613737773069E-01
  0.720168248007879E+00  0.334039390762639E-01  0.705115037218971E+00  0.286728977607396E-01  0.704379561288202E+00  0.281421225777428E-01
  0.714341584211895E+00  0.379048276819000E-01  0.698681998152525E+00  0.332912167175978E-01  0.697913744756755E+00  0.327615433372106E-01
  0.708490693751536E+00  0.425280191021892E-01  0.692212588063692E+00  0.380466665148604E-01  0.691410837144148E+00  0.375189785978229E-01
  0.702612967907421E+00  0.472726934339232E-01  0.685703813584401E+00  0.429385391148552E-01  0.684867821549162E+00  0.424137308428142E-01
  0.696705767516668E+00  0.521380027538734E-01  0.679152613124707E+00  0.479660779567681E-01  0.678281610295253E+00  0.474450530890404E-01
  0.690766419731634E+00  0.571230637384925E-01  0.672555852353837E+00  0.531284684827877E-01  0.671649040298131E+00  0.526121392767953E-01
  0.684792215186815E+00  0.622269502738928E-01  0.665910320114491E+00  0.584248284299809E-01  0.664966868864669E+00  0.579141144088385E-01
  0.678780405572549E+00  0.674486860277112E-01  0.659212724787199E+00  0.638541978458794E-01  0.658231769941016E+00  0.633500243952336E-01
  0.672728201620019E+00  0.727872369591006E-01  0.652459691129999E+00  0.694155287903436E-01  0.651440330836468E+00  0.689188255651330E-01
  0.666632771507443E+00  0.782415037474667E-01  0.645647757627059E+00  0.751076746908740E-01  0.644589049458210E+00  0.746193738112049E-01
  0.660491239702334E+00  0.838103141248090E-01  0.638773374388150E+00  0.809293793233090E-01  0.637674332100649E+00  0.804504133371451E-01
  0.654300686259436E+00  0.894924151007374E-01  0.631832901649182E+00  0.868792653949615E-01  0.630692491841622E+00  0.864105649838316E-01
  0.648058146598278E+00  0.952864650735073E-01  0.624822608932317E+00  0.929558227128676E-01  0.623639747606436E+00  0.924983141153303E-01
  0.641760611788432E+00  0.101191025824828E+00  0.617738674932547E+00  0.991573959260982E-01  0.616512223969431E+00  0.987119980523066E-01
  0.635405029374371E+00  0.107204554400831E+00  0.610577188205959E+00  0.105482171838204E+00  0.609305951771524E+00  0.105049793047632E+00
  0.628988304775337E+00  0.113325394886497E+00  0.603334148743243E+00  0.111928166293969E+00  0.602016869640998E+00  0.111509700807251E+00
  0.622507303298863E+00  0.119551770086106E+00  0.596005470520188E+00  0.118493210653938E+00  0.594640826513440E+00  0.118089534568892E+00
  0.615958852809407E+00  0.125881773127928E+00  0.588586985124860E+00  0.125174937880762E+00  0.587173585255268E+00  0.124786904762127E+00
  0.609339747095990E+00  0.132313359017474E+00  0.581074446568712E+00  0.131970768273548E+00  0.579610827503344E+00  0.131599204285804E+00
  0.602646749984646E+00  0.138844336170210E+00  0.573463537395824E+00  0.138877894900124E+00  0.571948159840731E+00  0.138523593453154E+00
  0.595876600242858E+00  0.145472357961732E+00  0.565749876210583E+00  0.145893268792685E+00  0.564181121435326E+00  0.145556984671047E+00
  0.589026017323807E+00  0.152194914340970E+00  0.557929026749059E+00  0.153013583989754E+00  0.556305193273602E+00  0.152696026938150E+00
  0.582091707998161E+00  0.159009323560159E+00  0.549996508622767E+00  0.160235262526865E+00  0.548315809125699E+00  0.159937090267117E+00
  0.575070373920100E+00  0.165912724083867E+00  0.541947809865042E+00  0.167554439499864E+00  0.540208368380082E+00  0.167276250158576E+00
  0.567958720172194E+00  0.172902066748456E+00  0.533778401409323E+00  0.174966948348308E+00  0.531978250885477E+00  0.174709272279529E+00
  0.560753464830471E+00  0.179974107252797E+00  0.525483753624846E+00  0.182468306531926E+00  0.523620833934201E+00  0.182231597525734E+00
  0.553451349586387E+00  0.187125399070738E+00  0.517059355027818E+00  0.190053701800378E+00  0.515131511513754E+00  0.189838327676616E+00
  0.546049151456288E+00  0.194352286885749E+00  0.508500733274634E+00  0.197717979285304E+00  0.506505715941759E+00  0.197524211881818E+00
  0.538543695601149E+00  0.201650900657974E+00  0.499803478527257E+00  0.205455629673425E+00  0.497738941982590E+00  0.205283634250334E+00
  0.530931869269777E+00  0.209017150443611E+00  0.490963269258979E+00  0.213260778749692E+00  0.488826773521232E+00  0.213110602845551E+00
  0.523210636867131E+00  0.216446722095679E+00  0.481975900540635E+00  0.221127178629389E+00  0.479764912840631E+00  0.220998740421697E+00
  0.515377056135843E+00  0.223935073983683E+00  0.472837314812409E+00  0.229048201026688E+00  0.470549212512156E+00  0.228941277268096E+00
  0.507428295423289E+00  0.231477434877002E+00  0.463543635104152E+00  0.237016832933248E+00  0.461175709864299E+00  0.236931046555972E+00
  0.499361651988756E+00  0.239068803142728E+00  0.454091200617173E+00  0.245025675102696E+00  0.451640663941971E+00  0.244960482606878E+00
  0.491174571285262E+00  0.246703947412639E+00  0.444476604522781E+00  0.253066943753464E+00  0.441940594807515E+00  0.253021622520294E+00
  0.482864667128609E+00  0.254377408875726E+00  0.434696733767423E+00  0.261132475911866E+00  0.432072324964987E+00  0.261106111608691E+00
  0.474429742642444E+00  0.262083505351526E+00  0.424748810601791E+00  0.269213738817319E+00  0.422033022611915E+00  0.269205213089173E+00
  0.465867811842704E+00  0.269816337295212E+00  0.414630435472517E+00  0.277301843800354E+00  0.411820246338566E+00  0.277309822469478E+00
  0.457177121698293E+00  0.277569795877257E+00  0.404339630831688E+00  0.285387565019383E+00  0.401431990805385E+00  0.285410487040375E+00
  0.448356174477561E+00  0.285337573268296E+00  0.393874885333280E+00  0.293461363402184E+00  0.390866732836866E+00  0.293497430844259E+00
  0.439403750162866E+00  0.293113175243037E+00  0.383235197799478E+00  0.301513416081053E+00  0.380123477277497E+00  0.301560585429073E+00
  0.430318928688821E+00  0.300889936195461E+00  0.372420120256858E+00  0.309533651535314E+00  0.369201801866178E+00  0.309589626616260E+00
  0.421101111734642E+00  0.308661036631006E+00  0.361429799266408E+00  0.317511790560728E+00  0.358101900303700E+00  0.317574017410504E+00
  0.411750043778291E+00  0.316419523169760E+00  0.350265014706573E+00  0.325437393072357E+00  0.346824622618214E+00  0.325503057057682E+00
  0.402265832100763E+00  0.324158331058161E+00  0.338927215119512E+00  0.333299910616908E+00  0.335371511881039E+00  0.333365936116914E+00
  0.392648965414022E+00  0.331870309145572E+00  0.327418548702198E+00  0.341088744324474E+00  0.323744836294845E+00  0.341151797255324E+00
  0.382900330776812E+00  0.339548247236972E+00  0.315741889020317E+00  0.348793307871565E+00  0.311947615673054E+00  0.348849801303860E+00
  0.373021228459752E+00  0.347184905684617E+00  0.303900854548195E+00  0.356403094861915E+00  0.299983641357548E+00  0.356449197934387E+00
  0.363013384425859E+00  0.354773047030960E+00  0.291899821195212E+00  0.363907749864620E+00  0.287857488684964E+00  0.363939400138807E+00
  0.352878960105481E+00  0.362305469463582E+00  0.279743927070301E+00  0.371297142187643E+00  0.275574521211829E+00  0.371310061517596E+00
  0.342620559166281E+00  0.369775041791874E+00  0.267439068861535E+00  0.378561441316093E+00  0.263140886046062E+00  0.378551155226370E+00
  0.332241231009549E+00  0.377174739606291E+00  0.254991889365994E+00  0.385691192816943E+00  0.250563499804978E+00  0.385653053293471E+00
  0.321744470763731E+00  0.384497682235989E+00  0.242409755892578E+00  0.392677393412668E+00  0.237850024924155E+00  0.392606604917700E+00
  0.311134215594212E+00  0.391737170081199E+00  0.229700729471906E+00  0.399511563862876E+00  0.225008836271088E+00  0.399403212290790E+00
  0.300414837204339E+00  0.398886721864600E+00  0.216873525035363E+00  0.406185818270957E+00  0.212048978264297E+00  0.406034902470329E+00
  0.289591130465210E+00  0.405940111322814E+00  0.203937462961122E+00  0.412692928456328E+00  0.198980112952684E+00  0.412494393859744E+00
  0.278668298179346E+00  0.412891402846216E+00  0.190902412618409E+00  0.419026382103649E+00  0.185812459760233E+00  0.418775155934345E+00
  0.267651932054265E+00  0.419734985573769E+00  0.177778728762056E+00  0.425180433517716E+00  0.172556727836369E+00  0.424871460985231E+00
  0.256547990033959E+00  0.426465605460018E+00  0.164577181827284E+00  0.431150145973364E+00  0.159224042161063E+00  0.430778426831900E+00
  0.245362770207208E+00  0.433078394854111E+00  0.151308883340180E+00  0.436931424847567E+00  0.145825864726104E+00  0.436492049673073E+00
  0.234102881579215E+00  0.439568899165409E+00  0.137985207784978E+00  0.442521040948128E+00  0.132373912241675E+00  0.442009226494147E+00
  0.222775212054877E+00  0.445933100236142E+00  0.124617712349082E+00  0.447916643699988E+00  0.118880071894594E+00  0.447327766717989E+00
  0.211386894036179E+00  0.452167436097512E+00  0.111218055997974E+00  0.453116764105468E+00  0.105356316708465E+00  0.452446393061412E+00
  0.199945268080758E+00  0.458268816849970E+00  0.977979193140886E-01  0.458120807647557E+00  0.918146220265365E-01  0.457364731830356E+00
  0.188457845102253E+00  0.464234636479029E+00  0.843689264688110E-01  0.462929037544942E+00  0.782668845583808E-01  0.462083293140983E+00
  0.176932267614629E+00  0.470062780492821E+00  0.709425705896187E-01  0.467542548984186E+00  0.647248453071356E-01  0.466603441781279E+00
  0.165376270531681E+00  0.475751629344133E+00  0.575301436416743E-01  0.471963235140508E+00  0.512000175327485E-01  0.470927359620126E+00
  0.153797642029370E+00  0.481300057675544E+00  0.441426717730895E-01  0.476193745947997E+00  0.377036207176610E-01  0.475058000622217E+00
  0.142204184963044E+00  0.486707429499098E+00  0.307908568844852E-01  0.480237440689464E+00  0.242465212945390E-01  0.478999039634417E+00
  0.130603679304770E+00  0.491973589489717E+00  0.174850249855378E-01  0.484098335544185E+00  0.108391806810447E-01  0.482754816171456E+00
  0.119003846029398E+00  0.497098850632242E+00  0.423508170263997E-02  0.487781047259497E+00 -0.250838904635466E-02  0.486330274447776E+00
  0.107412312833065E+00  0.502083978514295E+00 -0.894952488953539E-02  0.491290734102528E+00 -0.157866617106159E-01  0.489730900881618E+00
  0.958365820165946E-01  0.506930172599870E+00 -0.220598341172870E-01  0.494633035205507E+00 -0.289866258817389E-01  0.492962660242096E+00
  0.842840008104834E-01  0.511639044851135E+00 -0.350873954012350E-01  0.497814009347549E+00 -0.420998062354530E-01  0.496031931526275E+00
  0.727617343599364E-01  0.516212596088064E+00 -0.480242840930680E-01  0.500840074123536E+00 -0.551182777835642E-01  0.498945444547780E+00
  0.612767415295486E-01  0.520653190487458E+00 -0.608631108664575E-01  0.503717946342758E+00 -0.680346734483207E-01  0.501710218097974E+00
  0.498357536294848E-01  0.524963528625125E+00 -0.735970251591629E-01  0.506454584382439E+00 -0.808421855374909E-01  0.504333500411658E+00
  0.384452561099157E-01  0.529146619458315E+00 -0.862197132249945E-01  0.509057133099425E+00 -0.935345617347741E-01  0.506822712537347E+00
  0.271114732192841E-01  0.533205751630987E+00 -0.987253913928485E-01  0.511532871782046E+00 -0.106106096253660E+00  0.509185395082406E+00
  0.158403555757128E-01  0.537144464463306E+00 -0.111108795147757E+00  0.513889165507385E+00 -0.118551616814620E+00  0.511429158679757E+00
  0.463757056021986E-02  0.540966518960220E+00 -0.123365164648537E+00  0.516133420159947E+00 -0.130866468098701E+00  0.513561638408531E+00
 -0.649150459415699E-02  0.544675869143321E+00 -0.135490227281118E+00  0.518273041268350E+00 -0.143046492308452E+00  0.515590452298081E+00
 -0.175417871715486E-01  0.548276633976777E+00 -0.147480177819040E+00  0.520315396728459E+00 -0.155088007433063E+00  0.517523163954492E+00
 -0.285084909770989E-01  0.551773070123081E+00 -0.159331656725850E+00  0.522267783405255E+00 -0.166987783771660E+00  0.519367249271676E+00
 -0.393871261679292E-01  0.555169545728760E+00 -0.171041727090842E+00  0.524137397541721E+00 -0.178743019219831E+00  0.521130067125296E+00
 -0.501734971142599E-01  0.558470515405042E+00 -0.182607850642319E+00  0.525931308850837E+00 -0.190351313772139E+00  0.522818833896531E+00
 -0.608636984991597E-01  0.561680496534470E+00 -0.194027863233222E+00  0.527656438125796E+00 -0.201810643639724E+00  0.524440601633311E+00
 -0.714541098663579E-01  0.564804047002346E+00 -0.205299950144460E+00  0.529319538172768E+00 -0.213119335328905E+00  0.526002239627923E+00
 -0.819413888225867E-01  0.567845744422021E+00 -0.216422621502839E+00  0.530927177848922E+00 -0.224276039975268E+00  0.527510419170581E+00
 -0.923224630947173E-01  0.570810166895930E+00 -0.227394688064272E+00  0.532485728974828E+00 -0.235279708179130E+00  0.528971601227476E+00
 -0.102594521633090E+00  0.573701875329944E+00 -0.238215237569687E+00  0.534001355883550E+00 -0.246129565543192E+00  0.530392026787505E+00
 -0.112755004941533E+00  0.576525397297308E+00 -0.248883611841255E+00  0.535480007367652E+00 -0.256825089072105E+00  0.531777709623311E+00
 -0.122801594802172E+00  0.579285212430097E+00 -0.259399384750513E+00  0.536927410788854E+00 -0.267365984556776E+00  0.533134431218111E+00
 -0.132732203549710E+00  0.581985739300660E+00 -0.269762341157833E+00  0.538349068122220E+00 -0.277752165033579E+00  0.534467737619207E+00
 -0.142544963035876E+00  0.584631323742838E+00 -0.279972456894402E+00  0.539750253716681E+00 -0.287983730380219E+00  0.535782937990985E+00
 -0.152238213410588E+00  0.587226228552650E+00 -0.290029879833339E+00  0.541136013565614E+00 -0.298060948085456E+00  0.537085104653982E+00
 -0.161810491832283E+00  0.589774624500345E+00 -0.299934912075597E+00  0.542511165894448E+00 -0.307984235209218E+00  0.538379074411491E+00
 -0.171260521206200E+00  0.592280582580157E+00 -0.309687993258592E+00  0.543880302886352E+00 -0.317754141532247E+00  0.539669450980658E+00
 -0.180587199036264E+00  0.594748067420295E+00 -0.319289684980831E+00  0.545247793381467E+00 -0.327371333880299E+00  0.540960608360684E+00
 -0.189789586463822E+00  0.597180931773657E+00 -0.328740656323788E+00  0.546617786399567E+00 -0.336836581596433E+00  0.542256694986184E+00
 -0.198866897554896E+00  0.599582912009050E+00 -0.338041670442771E+00  0.547994215350148E+00 -0.346150743125976E+00  0.543561638528779E+00
 -0.207818488886914E+00  0.601957624523182E+00 -0.347193572191005E+00  0.549380802807584E+00 -0.355314753671913E+00  0.544879151224326E+00
 -0.216643849476132E+00  0.604308562995216E+00 -0.356197276735584E+00  0.550781065741957E+00 -0.364329613873428E+00  0.546212735616763E+00
 -0.225342591078119E+00  0.606639096407886E+00 -0.365053759119883E+00  0.552198321108375E+00 -0.373196379456894E+00  0.547565690622196E+00
 -0.233914438885773E+00  0.608952467762124E+00 -0.373764044724317E+00  0.553635691708991E+00 -0.381916151806463E+00  0.548941117828642E+00
 -0.242359222642312E+00  0.611251793415435E+00 -0.382329200575768E+00  0.555096112252440E+00 -0.390490069400372E+00  0.550341927957591E+00
 -0.250676868180549E+00  0.613540062978013E+00 -0.390750327455321E+00  0.556582335545098E+00 -0.398919300058944E+00  0.551770847423440E+00
 -0.258867389394393E+00  0.615820139704443E+00 -0.399028552754075E+00  0.558096938757341E+00 -0.407205033950793E+00  0.553230424935764E+00
 -0.266930880643897E+00  0.618094761322920E+00 -0.407165024027489E+00  0.559642329715969E+00 -0.415348477304932E+00  0.554723038097430E+00
 -0.274867509591296E+00  0.620366541247950E+00 -0.415160903199911E+00  0.561220753181135E+00 -0.423350846778004E+00  0.556250899958801E+00
 -0.282677510462127E+00  0.622637970126596E+00 -0.423017361372507E+00  0.562834297072530E+00 -0.431213364427798E+00  0.557816065494678E+00
 -0.290361177722884E+00  0.624911417672286E+00 -0.430735574189612E+00  0.564484898615346E+00 -0.438937253246335E+00  0.559420437976332E+00
 -0.297918860164339E+00  0.627189134744088E+00 -0.438316717720564E+00  0.566174350381549E+00 -0.446523733208122E+00  0.561065775216030E+00
 -0.305350955378011E+00  0.629473255633044E+00 -0.445761964816232E+00  0.567904306206553E+00 -0.453974017791542E+00  0.562753695665848E+00
 -0.312657904611792E+00  0.631765800520729E+00 -0.453072481901662E+00  0.569676286965262E+00 -0.461289310933836E+00  0.564485684356446E+00
 -0.319840187989813E+00  0.634068678078529E+00 -0.460249426168525E+00  0.571491686194910E+00 -0.468470804382525E+00  0.566263098664826E+00
 -0.326898320080840E+00  0.636383688179302E+00 -0.467293943133308E+00  0.573351775555128E+00 -0.475519675408569E+00  0.568087173903003E+00
 -0.333832845799097E+00  0.638712524696019E+00 -0.474207164529387E+00  0.575257710118254E+00 -0.482437084848904E+00  0.569959028722023E+00
 -0.340644336621128E+00  0.641056778364733E+00 -0.480990206503297E+00  0.577210533485107E+00 -0.489224175448283E+00  0.571879670327878E+00
 -0.347333387102296E+00  0.643417939691769E+00 -0.487644168087580E+00  0.579211182723396E+00 -0.495882070472535E+00  0.573849999507727E+00
 -0.353900611676613E+00  0.645797401887342E+00 -0.494170129924635E+00  0.581260493127522E+00 -0.502411872567462E+00  0.575870815466315E+00
 -0.360346641723812E+00  0.648196463809985E+00 -0.500569153217841E+00  0.583359202799922E+00 -0.508814662839556E+00  0.577942820473819E+00
 -0.366672122887961E+00  0.650616332908114E+00 -0.506842278888112E+00  0.585507957055243E+00 -0.515091500136626E+00  0.580066624327375E+00
 -0.372877712632282E+00  0.653058128146847E+00 -0.512990526915701E+00  0.587707312649597E+00 -0.521243420508172E+00  0.582242748629441E+00
 -0.378964078015384E+00  0.655522882909812E+00 -0.519014895848700E+00  0.589957741837910E+00 -0.527271436826990E+00  0.584471630886847E+00
 -0.384931893674614E+00  0.658011547867162E+00 -0.524916362461206E+00  0.592259636263047E+00 -0.533176538555069E+00  0.586753628434957E+00
 -0.390781840002830E+00  0.660524993802312E+00 -0.530695881545516E+00  0.594613310680864E+00 -0.538959691638258E+00  0.589089022191800E+00
 -0.396514601505488E+00  0.663064014391116E+00 -0.536354385824044E+00  0.597019006525752E+00 -0.544621838515508E+00  0.591478020247366E+00
 -0.402130865325545E+00  0.665629328928274E+00 -0.541892785967871E+00  0.599476895321535E+00 -0.550163898229791E+00  0.593920761293497E+00
 -0.407631319924302E+00  0.668221584996682E+00 -0.547311970709980E+00  0.601987081942786E+00 -0.555586766628869E+00  0.596417317899977E+00
 -0.413016653906928E+00  0.670841361076302E+00 -0.552612807042264E+00  0.604549607731790E+00 -0.560891316645213E+00  0.598967699642504E+00
 -0.418287554982001E+00  0.673489169089884E+00 -0.557796140486392E+00  0.607164453476441E+00 -0.566078398645310E+00  0.601571856088290E+00
 -0.423444709045038E+00  0.676165456883508E+00 -0.562862795429496E+00  0.609831542254421E+00 -0.571148840839511E+00  0.604229679645003E+00
 -0.428488799376514E+00  0.678870610640511E+00 -0.567813575516453E+00  0.612550742148990E+00 -0.576103449744400E+00  0.606941008278747E+00
 -0.433420505945493E+00  0.681604957227883E+00 -0.572649264091342E+00  0.615321868841658E+00 -0.580943010690412E+00  0.609705628106667E+00
 -0.438240504810503E+00  0.684368766474638E+00 -0.577370624681299E+00  0.618144688086975E+00 -0.585668288368136E+00  0.612523275869695E+00
 -0.442949467609826E+00  0.687162253382071E+00 -0.581978401516663E+00  0.621018918074536E+00 -0.590280027407361E+00  0.615393641290811E+00
 -0.447548061133877E+00  0.689985580266133E+00 -0.586473320081899E+00  0.623944231683220E+00 -0.594778952983526E+00  0.618316369324048E+00
 -0.452036946972832E+00  0.692838858832443E+00 -0.590856087692283E+00  0.626920258632531E+00 -0.599165771446744E+00  0.621291062299331E+00
 -0.456416781233102E+00  0.695722152184719E+00 -0.595127394091870E+00  0.629946587535779E+00 -0.603441170969069E+00  0.624317281968072E+00
 -0.460688214316705E+00  0.698635476767582E+00 -0.599287912068679E+00  0.633022767859674E+00 -0.607605822206107E+00  0.627394551454268E+00
 -0.464851890758000E+00  0.701578804244881E+00 -0.603338298083461E+00  0.636148311794785E+00 -0.611660378969494E+00  0.630522357115688E+00
 -0.468908449112607E+00  0.704552063314835E+00 -0.607279192908765E+00  0.639322696041109E+00 -0.615605478907102E+00  0.633700150319537E+00
 -0.472858521893734E+00  0.707555141463387E+00 -0.611111222275393E+00  0.642545363512874E+00 -0.619441744188203E+00  0.636927349136852E+00
 -0.476702735551464E+00  0.710587886657259E+00 -0.614834997523600E+00  0.645815724966517E+00 -0.623169782191080E+00  0.640203339959646E+00
 -0.480441710490875E+00  0.713650108978294E+00 -0.618451116256709E+00  0.649133160555623E+00 -0.626790186190898E+00  0.643527479044713E+00
 -0.484076061125170E+00  0.716741582200684E+00 -0.621960162995061E+00  0.652497021316444E+00 -0.630303536045857E+00  0.646899093987773E+00
 -0.487606395960300E+00  0.719862045312765E+00 -0.625362709828437E+00  0.655906630587477E+00 -0.633710398879896E+00  0.650317485131519E+00
 -0.491033317707777E+00  0.723011203985049E+00 -0.628659317065323E+00  0.659361285366397E+00 -0.637011329760422E+00  0.653781926910925E+00
 -0.494357423422693E+00  0.726188731986195E+00 -0.631850533877547E+00  0.662860257607522E+00 -0.640206872369713E+00  0.657291669139043E+00
 -0.497579304664132E+00  0.729394272548629E+00 -0.634936898939045E+00  0.666402795462811E+00 -0.643297559668814E+00  0.660845938236359E+00
 -0.500699547675417E+00  0.732627439685491E+00 -0.637918941057593E+00  0.669988124469285E+00 -0.646283914552919E+00  0.664443938406611E+00
 -0.503718733581809E+00  0.735887819460606E+00 -0.640797179798571E+00  0.673615448685586E+00 -0.649166450497316E+00  0.668084852761841E+00
 -0.506637438603492E+00  0.739174971213124E+00 -0.643572126099862E+00  0.677283951780291E+00 -0.651945672193169E+00  0.671767844399338E+00
 -0.509456234281828E+00  0.742488428738485E+00 -0.646244282877203E+00  0.680992798074449E+00 -0.654622076172442E+00  0.675492057432944E+00
 -0.512175687717030E+00  0.745827701427286E+00 -0.648814145619304E+00  0.684741133540694E+00 -0.657196151421445E+00  0.679256617981118E+00
 -0.514796361815582E+00  0.749192275363656E+00 -0.651282202972244E+00  0.688528086761169E+00 -0.659668379982506E+00  0.683060635114008E+00
 -0.517318815545822E+00  0.752581614384647E+00 -0.653648937312665E+00  0.692352769846372E+00 -0.662039237543410E+00  0.686903201761660E+00
 -0.519743604200295E+00  0.755995161102145E+00 -0.655914825309396E+00  0.696214279316955E+00 -0.664309194014268E+00  0.690783395585404E+00
 -0.522071279663547E+00  0.759432337888772E+00 -0.658080338473207E+00  0.700111696950364E+00 -0.666478714091589E+00  0.694700279814318E+00
 -0.524302390684182E+00  0.762892547829168E+00 -0.660145943694433E+00  0.704044090594140E+00 -0.668548257809350E+00  0.698652904048614E+00
 -0.526437483150094E+00  0.766375175638046E+00 -0.662112103768285E+00  0.708010514947598E+00 -0.670518281076932E+00  0.702640305031642E+00
 -0.528477100365872E+00  0.769879588546333E+00 -0.663979277907713E+00  0.712010012313508E+00 -0.672389236203821E+00  0.706661507392165E+00
 -0.530421783331480E+00  0.773405137156685E+00 -0.665747922243705E+00  0.716041613321311E+00 -0.674161572411039E+00  0.710715524358432E+00
 -0.532272071021386E+00  0.776951156269623E+00 -0.667418490312973E+00  0.720104337623342E+00 -0.675835736329263E+00  0.714801358445524E+00
 -0.534028500663396E+00  0.780516965681472E+00 -0.668991433533006E+00  0.724197194565430E+00 -0.677412172483676E+00  0.718918002117347E+00
 -0.535691608016513E+00  0.784101870955265E+00 -0.670467201664482E+00  0.728319183833193E+00 -0.678891323765565E+00  0.723064438424582E+00
 -0.537261927647199E+00  0.787705164165718E+00 -0.671846243261085E+00  0.732469296075248E+00 -0.680273631890765E+00  0.727239641619826E+00
 -0.538739993203500E+00  0.791326124619351E+00 -0.673129006106774E+00  0.736646513504536E+00 -0.681559537845009E+00  0.731442577751107E+00
 -0.540126337686529E+00  0.794964019550764E+00 -0.674315937640584E+00  0.740849810478839E+00 -0.682749482316324E+00  0.735672205234853E+00
 -0.541421493718842E+00  0.798618104796077E+00 -0.675407485369064E+00  0.745078154061562E+00 -0.683843906114569E+00  0.739927475409391E+00
 -0.542625993809336E+00  0.802287625444460E+00 -0.676404097266450E+00  0.749330504563755E+00 -0.684843250578278E+00  0.744207333069941E+00