 VARIABLES =  $x$  $\epsilon=10^{-3}$  $x$2  $\epsilon=10^{-4}$  $x$3  $\epsilon=10^{-5}$
 ZONE I=        1501 ,DATAPACKING=POINT
  0.994000000000000E+00  0.000000000000000E+00  0.994000000000000E+00  0.000000000000000E+00  0.994000000000000E+00  0.000000000000000E+00
  0.984753238199634E+00 -0.153364342771163E-01  0.984749182574747E+00 -0.153783057209736E-01  0.984752616440387E+00 -0.153873629367140E-01
  0.974114962394302E+00 -0.224032072047612E-01  0.974095009251088E+00 -0.225257527146897E-01  0.974099408723701E+00 -0.225513861505167E-01
  0.964541619577477E+00 -0.270363800914931E-01  0.964490209627957E+00 -0.272551688245922E-01  0.964492132257921E+00 -0.272997381332388E-01
  0.955697804691597E+00 -0.304614559809543E-01  0.955600815800867E+00 -0.307841570806454E-01  0.955597531915192E+00 -0.308486642133172E-01
  0.947369384099070E+00 -0.331147809694962E-01  0.947214503612948E+00 -0.335455038682938E-01  0.947203764235125E+00 -0.336304181887940E-01
  0.939425992074708E+00 -0.352060949549070E-01  0.939202294834863E+00 -0.357469763892840E-01  0.939182166076008E+00 -0.358524900682462E-01
  0.931782723459117E+00 -0.368542017139717E-01  0.931480331285088E+00 -0.375061198015910E-01  0.931449099088072E+00 -0.376322536066223E-01
  0.924380871970579E+00 -0.381337722287849E-01  0.923990716818434E+00 -0.388967204264627E-01  0.923946829160261E+00 -0.390433763126102E-01
  0.917177878318475E+00 -0.390952375597103E-01  0.916691536919122E+00 -0.399685425678478E-01  0.916633566477130E+00 -0.401355332397011E-01
  0.910141708105135E+00 -0.397744977391407E-01  0.909551283346671E+00 -0.407569568390499E-01  0.909477902065088E+00 -0.409440239060200E-01
  0.903247504796588E+00 -0.401981538587346E-01  0.902545538076687E+00 -0.412881268266835E-01  0.902455499063711E+00 -0.414949527240886E-01
  0.896475490230525E+00 -0.403865466195741E-01  0.895654894860975E+00 -0.415820202279053E-01  0.895547019024636E+00 -0.418082364650721E-01
  0.889809589199180E+00 -0.403556275149951E-01  0.888863598503445E+00 -0.416542625689783E-01  0.888736764375094E+00 -0.418994556809975E-01
  0.883236494995659E+00 -0.401181668969986E-01  0.882158620909973E+00 -0.415173336439522E-01  0.882011756683264E+00 -0.417810496369611E-01
  0.876745014676702E+00 -0.396845649154844E-01  0.875529014017276E+00 -0.411813704238493E-01  0.875361091168987E+00 -0.414631181918705E-01
  0.870325598035229E+00 -0.390634139868185E-01  0.868965444459161E+00 -0.406547238066081E-01  0.868775472524624E+00 -0.409539778224107E-01
  0.863969990893136E+00 -0.382618999670464E-01  0.862459851148785E+00 -0.399443556100536E-01  0.862246873355267E+00 -0.402605580887931E-01
  0.857670974738443E+00 -0.372860952746506E-01  0.856005188183435E+00 -0.390561285700741E-01  0.855768277730100E+00 -0.393886912406630E-01
  0.851422167710497E+00 -0.361411776391668E-01  0.849595228338759E+00 -0.379950227088321E-01  0.849333485169084E+00 -0.383433282873525E-01
  0.845217870055826E+00 -0.348315964305012E-01  0.843224410460019E+00 -0.367652998210799E-01  0.842936958411920E+00 -0.371287032538763E-01
  0.839052942399029E+00 -0.333612012674134E-01  0.836887719227072E+00 -0.353706306363774E-01  0.836573703473654E+00 -0.357484601625112E-01
  0.832922708615576E+00 -0.317333429795057E-01  0.830580589176223E+00 -0.338141946338105E-01  0.830239173889911E+00 -0.342057527041938E-01
  0.826822877413734E+00 -0.299509539738105E-01  0.824298827157279E+00 -0.320987594911404E-01  0.823929193344466E+00 -0.325033235730054E-01
  0.820749478328272E+00 -0.280166130347559E-01  0.818038548981642E+00 -0.302267451474821E-01  0.817639892445700E+00 -0.306435684366727E-01
  0.814698808945563E+00 -0.259325982054690E-01  0.811796127121350E+00 -0.282002760913475E-01  0.811367656519781E+00 -0.286285881504822E-01
  0.808667390974589E+00 -0.237009304379446E-01  0.805568147104432E+00 -0.260212245350755E-01  0.805109082072030E+00 -0.264602318724169E-01
  0.802651933352632E+00 -0.213234100202538E-01  0.799351370819217E+00 -0.236912464642865E-01  0.798860940133685E+00 -0.241401330658140E-01
  0.796649300995046E+00 -0.188016473010312E-01  0.793142705355589E+00 -0.212118120681848E-01  0.792620145125669E+00 -0.216697398936881E-01
  0.790656488110531E+00 -0.161370888760911E-01  0.786939176319270E+00 -0.185842317049984E-01  0.786383728178192E+00 -0.190503411578086E-01
  0.784670595237549E+00 -0.133310401398296E-01  0.780737904786383E+00 -0.158096782975914E-01  0.780148814075630E+00 -0.162830886767499E-01
  0.778688809335316E+00 -0.103846849083493E-01  0.774536087241019E+00 -0.128892068608523E-01  0.773912601171124E+00 -0.133690168039917E-01
  0.772708386399146E+00 -0.729910267352920E-02  0.768330977973099E+00 -0.982377171657472E-02  0.767672343749543E+00 -0.103090596415011E-01
  0.766726636175550E+00 -0.407528393467312E-02  0.762119873518050E+00 -0.661424184042469E-02  0.761425336421454E+00 -0.710406639330274E-02
  0.760740908635087E+00 -0.714143967728209E-03  0.755900098801397E+00 -0.326141470018190E-02  0.755168900212053E+00 -0.375481521830153E-02
  0.754748581926187E+00  0.278346467516829E-02  0.749668994715738E+00  0.233971121763378E-03  0.748900370073274E+00 -0.262025875568986E-03
  0.748747051585052E+00  0.641674069566963E-02  0.743423906908962E+00  0.387122428038468E-02  0.742617083598556E+00  0.337362859627947E-02
  0.742733720818570E+00  0.101849234100612E-01  0.737162175603907E+00  0.764968979387727E-02  0.736316370760965E+00  0.715151096454947E-02
  0.736705991710985E+00  0.140872827752385E-01  0.730881126303296E+00  0.115687387750351E-01  0.729995544529017E+00  0.110710094838200E-01
  0.730661257232874E+00  0.181231099404434E-01  0.724578061261460E+00  0.156277586254692E-01  0.723651892242125E+00  0.151315280298064E-01
  0.724596893953961E+00  0.222917082065991E-01  0.718250251627336E+00  0.198261435705953E-01  0.717282667650629E+00  0.193324765628592E-01
  0.718510255380507E+00  0.265923842922995E-01  0.711894930182644E+00  0.241632854299566E-01  0.710885083544756E+00  0.236732618147572E-01
  0.712398665854310E+00  0.310244398195810E-01  0.705509284615660E+00  0.286385645309715E-01  0.704456304913430E+00  0.281532781058805E-01
  0.706259414964294E+00  0.355871629442109E-01  0.699090451285353E+00  0.332513406852911E-01  0.697993442588275E+00  0.327718982108410E-01
  0.700089752433780E+00  0.402798200648979E-01  0.692635509443302E+00  0.380009441561309E-01  0.691493547340868E+00  0.375284641997333E-01
  0.693886883457196E+00  0.451016475539873E-01  0.686141475892082E+00  0.428866665526492E-01  0.684953604412707E+00  0.424222781897815E-01
  0.687647964469507E+00  0.500518434591885E-01  0.679605300069169E+00  0.479077515940206E-01  0.678370528467840E+00  0.474525929486433E-01
  0.681370099340302E+00  0.551295591319814E-01  0.673023859554924E+00  0.530633856915885E-01  0.671741158967788E+00  0.526186022962847E-01
  0.675050335992381E+00  0.603338907437853E-01  0.666393956012288E+00  0.583526883026275E-01  0.665062255977670E+00  0.579194312574080E-01
  0.668685663452102E+00  0.656638706559599E-01  0.659712311574431E+00  0.637747020140162E-01  0.658330496421261E+00  0.633541259211232E-01
  0.662273009345747E+00  0.711184586144038E-01  0.652975565705017E+00  0.693283823187057E-01  0.651542470811421E+00  0.689216429690893E-01
  0.655809237862783E+00  0.766965327440893E-01  0.646180272564005E+00  0.750125870524612E-01  0.644694680490878E+00  0.746208388379105E-01
  0.649291148213339E+00  0.823968803234434E-01  0.639322898920096E+00  0.808260654630953E-01  0.637783535426891E+00  0.804504584863225E-01
  0.642715473613399E+00  0.882181883231996E-01  0.632399822659138E+00  0.867674468894962E-01  0.630805352611914E+00  0.864091237428065E-01
  0.636078880837233E+00  0.941590336993139E-01  0.625407331945977E+00  0.928352290333198E-01  0.623756355130965E+00  0.924953212149184E-01
  0.629377970382464E+00  0.100217873434873E+00  0.618341625105508E+00  0.990277658124285E-01  0.616632671965172E+00  0.987073897479513E-01
  0.622609277298797E+00  0.106393034331746E+00  0.611198811296871E+00  0.105343254792191E+00  0.609430338609659E+00  0.105043507427770E+00
  0.615769272736925E+00  0.112682702559119E+00  0.603974912062932E+00  0.111779724198754E+00  0.602145298592705E+00  0.111501678130913E+00
  0.608854366279298E+00  0.119084912973163E+00  0.596665863845262E+00  0.118335019527542E+00  0.594773405991770E+00  0.118079717634538E+00
  0.601860909119249E+00  0.125597538229912E+00  0.589267521562594E+00  0.125006789770675E+00  0.587310429050380E+00  0.124775239309708E+00
  0.594785198159416E+00  0.132218277722202E+00  0.581775663358189E+00  0.131792473298900E+00  0.579752055008000E+00  0.131585639433932E+00
  0.587623481104133E+00  0.138944646381166E+00  0.574185996628339E+00  0.138689283447146E+00  0.572093896262445E+00  0.138508082173171E+00
  0.580371962623624E+00  0.145773963393468E+00  0.566494165450236E+00  0.145694193868092E+00  0.564331497991071E+00  0.145539484299590E+00
  0.573026811669956E+00  0.152703340897206E+00  0.558695759532271E+00  0.152803923735245E+00  0.556460347362462E+00  0.152676499729535E+00
  0.565584170025778E+00  0.159729672732220E+00  0.550786324813213E+00  0.160014922896157E+00  0.548475884474267E+00  0.159915503986560E+00
  0.558040162166595E+00  0.166849623334417E+00  0.542761375838197E+00  0.167323357097483E+00  0.540373515154835E+00  0.167252578716813E+00
  0.550390906515362E+00  0.174059616878648E+00  0.534616410038572E+00  0.174725093426661E+00  0.532148625765754E+00  0.174683496408842E+00
  0.542632528164368E+00  0.181355826790515E+00  0.526346924038919E+00  0.182215686140014E+00  0.523796600138855E+00  0.182203705496775E+00
  0.534761173133293E+00  0.188734165764147E+00  0.517948432107323E+00  0.189790363073744E+00  0.515312838773928E+00  0.189808316054557E+00
  0.526773024223696E+00  0.196190276440212E+00  0.509416486853719E+00  0.197444012862480E+00  0.506692780411758E+00  0.197492086319472E+00
  0.518664318518637E+00  0.203719522916021E+00  0.500746702265076E+00  0.205171173219204E+00  0.497931926080333E+00  0.205249410314750E+00
  0.510431366561394E+00  0.211316983277084E+00  0.491934779144822E+00  0.212966020559974E+00  0.489025865689426E+00  0.213074306873370E+00
  0.502070573228923E+00  0.218977443356526E+00  0.482976532996388E+00  0.220822361286202E+00  0.479970307219581E+00  0.220960410397103E+00
  0.493578460293561E+00  0.226695391944779E+00  0.473867924356719E+00  0.228733625065254E+00  0.470761108515075E+00  0.228900963715654E+00
  0.484951690640365E+00  0.234465017686273E+00  0.464605091544322E+00  0.236692860475802E+00  0.461394311646158E+00  0.236888813438923E+00
  0.476187094077111E+00  0.242280207911792E+00  0.455184385737715E+00  0.244692733406193E+00  0.451866179753350E+00  0.244916408219627E+00
  0.467281694639511E+00  0.250134549663747E+00  0.445602408243807E+00  0.252725528610631E+00  0.442173236225692E+00  0.252975800361914E+00
  0.458232739255685E+00  0.258021333176156E+00  0.435856049751877E+00  0.260783154837315E+00  0.432312305995586E+00  0.261058651222316E+00
  0.449037727591611E+00  0.265933558070344E+00  0.425942531298020E+00  0.268857153943111E+00  0.422280558655964E+00  0.269156240850213E+00
  0.439694442853830E+00  0.273863942520587E+00  0.415859446588022E+00  0.276938714398638E+00  0.412075553021761E+00  0.277259482303744E+00
  0.430200983277700E+00  0.281804935629807E+00  0.405604805245057E+00  0.285018689564030E+00  0.401695282668779E+00  0.285358941051577E+00
  0.420555793980112E+00  0.289748733233321E+00  0.395177076464332E+00  0.293087621077079E+00  0.391138221891079E+00  0.293444859828935E+00
  0.410757698805994E+00  0.297687297317498E+00  0.384575232472412E+00  0.301135767640359E+00  0.380403371425911E+00  0.301507189256085E+00
  0.400805931749793E+00  0.305612379199500E+00  0.373798791107441E+00  0.309153139421077E+00  0.369490303206318E+00  0.309535624447515E+00
  0.390700167488127E+00  0.313515546563661E+00  0.362847856761675E+00  0.317129538186053E+00  0.358399203320159E+00  0.317519647739780E+00
  0.380440550520139E+00  0.321388214389385E+00  0.351723158863620E+00  0.325054603184601E+00  0.347130912284812E+00  0.325448577545373E+00
  0.370027722379803E+00  0.329221679735270E+00  0.340426087028188E+00  0.332917862665051E+00  0.335686961694432E+00  0.333311623200328E+00
  0.359462846361878E+00  0.337007160265181E+00  0.328958721974016E+00  0.340708790768485E+00  0.324069606266219E+00  0.341097945516886E+00
  0.348747629192663E+00  0.344735836315732E+00  0.317323861302048E+00  0.348416869389081E+00  0.312281850308733E+00  0.348796722583280E+00
  0.337884339080158E+00  0.352398896213003E+00  0.305525039252271E+00  0.356031654428815E+00  0.300327467663080E+00  0.356397220175510E+00
  0.326875819597582E+00  0.359987584451822E+00  0.293566539609510E+00  0.363542845710815E+00  0.288211014230275E+00  0.363888865967412E+00
  0.315725498890697E+00  0.367493252256623E+00  0.281453401016087E+00  0.370940359656930E+00  0.275937832297167E+00  0.371261326552755E+00
  0.304437393753823E+00  0.374907409952174E+00  0.269191414069620E+00  0.378214403688477E+00  0.263514046009401E+00  0.378504586134900E+00
  0.293016108191851E+00  0.382221780489080E+00  0.256787109736782E+00  0.385355551182336E+00  0.250946547511260E+00  0.385609025604341E+00
  0.281466826175030E+00  0.389428353396762E+00  0.244247738795382E+00  0.392354815715119E+00  0.238242973474980E+00  0.392565500620593E+00
  0.269795298398281E+00  0.396519438379277E+00  0.231581242222446E+00  0.399203723263086E+00  0.225411671970234E+00  0.399365417250179E+00
  0.258007822974510E+00  0.403487717730467E+00  0.218796212668120E+00  0.405894381000436E+00  0.212461659869774E+00  0.406000803692946E+00
  0.246111220118554E+00  0.410326296727138E+00  0.205901847385625E+00  0.412419541357772E+00  0.199402571239968E+00  0.412464376658923E+00
  0.234112801010663E+00  0.417028751164682E+00  0.192907893216607E+00  0.418772660067764E+00  0.186244597414173E+00  0.418749601039124E+00
  0.222020331161277E+00  0.423589171229616E+00  0.179824584448843E+00  0.424947947035888E+00  0.172998419681175E+00  0.424850741644937E+00
  0.209841988727175E+00  0.430002200958240E+00  0.166662574559405E+00  0.430940409027477E+00  0.159675135729176E+00  0.430762905968185E+00
  0.197586318347832E+00  0.436263072608708E+00  0.153432863021833E+00  0.436745883352831E+00  0.146286181157991E+00  0.436482077130770E+00
  0.185262181175405E+00  0.442367635373088E+00  0.140146718482936E+00  0.442361061951962E+00  0.132843247500022E+00  0.442005136439995E+00
  0.172878701857750E+00  0.448312377973129E+00  0.126815599697782E+00  0.447783505520437E+00  0.119358198268442E+00  0.447329875232273E+00
  0.160445213298163E+00  0.454094444814210E+00  0.113451075647028E+00  0.453011647567206E+00  0.105842984575818E+00  0.452454995962079E+00
  0.147971200055483E+00  0.459711645511420E+00  0.100064746248220E+00  0.458044788543426E+00  0.923095618382508E-01  0.457380102762501E+00
  0.135466241262819E+00  0.465162457744720E+00  0.866681650141201E-01  0.462883080417642E+00  0.787698090018089E-01  0.462105681957044E+00
  0.122939953932351E+00  0.470446023541236E+00  0.732727649106970E-01  0.467527502287689E+00  0.652354516052631E-01  0.466633073229231E+00
  0.110401937478571E+00  0.475562139216906E+00  0.598897885314756E-01  0.471979827805551E+00  0.517179898334313E-01  0.470964432348740E+00
  0.978617202352531E-01  0.480511239332356E+00  0.465302235413233E-01  0.476242585342099E+00  0.382286325279509E-01  0.475102686504483E+00
  0.853287086655382E-01  0.485294375125050E+00  0.332047441599828E-01  0.480319011930562E+00  0.247782379169016E-01  0.479051483402744E+00
  0.728121398734138E-01  0.489913187968711E+00  0.199236592626838E-01  0.484213002099198E+00  0.113772616112855E-01  0.482815135351561E+00
  0.603210379229983E-01  0.494369878479604E+00  0.669686748055898E-02  0.487929052735793E+00 -0.196428779563539E-02  0.486398559572477E+00
  0.478641743635424E-01  0.498667171936726E+00 -0.646618050494215E-02  0.491472205121687E+00 -0.152368853925032E-01  0.489807215961102E+00
  0.354500332473507E-01  0.502808280709348E+00 -0.195565124552336E-01  0.494847985235248E+00 -0.284315189296969E-01  0.493047043463790E+00
  0.230867808187563E-01  0.506796864391584E+00 -0.325656579948855E-01  0.498062343359138E+00 -0.415397103311244E-01  0.496124396155102E+00
  0.107822399483873E-01  0.510636988331591E+00 -0.454856652348720E-01  0.501121593938025E+00 -0.545535300932002E-01  0.499045979996378E+00
 -0.145613070889856E-02  0.514333081214697E+00 -0.583091109871827E-01  0.504032356529727E+00 -0.674656050381996E-01  0.501818791136207E+00
 -0.136212529396742E-01  0.517889892318141E+00 -0.710291050472268E-01  0.506801498578773E+00 -0.802691199739007E-01  0.504450056485381E+00
 -0.257064407623131E-01  0.521312449002793E+00 -0.836392890842815E-01  0.509436080622544E+00 -0.929578138698102E-01  0.506947177167716E+00
 -0.377054080244367E-01  0.524606014947292E+00 -0.961338307213117E-01  0.511943304421174E+00 -0.105525971194340E+00  0.509317675318932E+00
 -0.496122720981554E-01  0.527776049565247E+00 -0.108507413405835E+00  0.514330464387274E+00 -0.117968409069647E+00  0.511569144582624E+00
 -0.614215539995855E-01  0.530828168978968E+00 -0.120755222675812E+00  0.516604902583372E+00 -0.130280460894637E+00  0.513709204538269E+00
 -0.731281752829567E-01  0.533768108856090E+00 -0.132872929411591E+00  0.518773967456045E+00 -0.142457957065093E+00  0.515745459193431E+00
 -0.847274520725605E-01  0.536601689350163E+00 -0.144856670639710E+00  0.520844976387642E+00 -0.154497203386356E+00  0.517685459582050E+00
 -0.962150865990997E-01  0.539334782324492E+00 -0.156703028419762E+00  0.522825182069976E+00 -0.166394957731566E+00  0.519536670433637E+00
 -0.107587156601984E+00  0.541973280981328E+00 -0.168409007304087E+00  0.524721742639753E+00 -0.178148405450030E+00  0.521306440814191E+00
 -0.118840102947303E+00  0.544523071966750E+00 -0.179972010814410E+00  0.526541695462496E+00 -0.189755133978327E+00  0.523001978588281E+00
 -0.129970715793868E+00  0.546990009975806E+00 -0.191389817331483E+00  0.528291934409725E+00 -0.201213107053434E+00  0.524630328512123E+00
 -0.140976119618336E+00  0.549379894842829E+00 -0.202660555745339E+00  0.529979190442340E+00 -0.212520638874185E+00  0.526198353738531E+00
 -0.151853757386079E+00  0.551698451068343E+00 -0.213782681166094E+00  0.531610015290429E+00 -0.223676368506162E+00  0.527712720495072E+00
 -0.162601374128351E+00  0.553951309706437E+00 -0.224754950949590E+00  0.533190768005059E+00 -0.234679234776649E+00  0.529179885685440E+00
 -0.173217000159287E+00  0.556143992514503E+00 -0.235576401249267E+00  0.534727604149766E+00 -0.245528451861292E+00  0.530606087159512E+00
 -0.183698934139226E+00  0.558281898250442E+00 -0.246246324266036E+00  0.536226467397390E+00 -0.256223485723077E+00  0.531997336398768E+00
 -0.194045726164290E+00  0.560370290990251E+00 -0.256764246331982E+00  0.537693083300539E+00 -0.266764031527363E+00  0.533359413369415E+00
 -0.204256161036721E+00  0.562414290330854E+00 -0.267129906931501E+00  0.539132955010302E+00 -0.277149992124054E+00  0.534697863304747E+00
 -0.214329241846423E+00  0.564418863338475E+00 -0.277343238735101E+00  0.540551360727052E+00 -0.287381457659520E+00  0.536017995190092E+00
 -0.224264173971848E+00  0.566388818101391E+00 -0.287404348696327E+00  0.541953352678469E+00 -0.297458686356349E+00  0.537324881737264E+00
 -0.234060349587864E+00  0.568328798746840E+00 -0.297313500241087E+00  0.543343757432666E+00 -0.307382086478225E+00  0.538623360650258E+00
 -0.243717332749693E+00  0.570243281784910E+00 -0.307071096560641E+00  0.544727177367911E+00 -0.317152199479853E+00  0.539918036999266E+00
 -0.253234845105464E+00  0.572136573646844E+00 -0.316677665004591E+00  0.546107993134509E+00 -0.326769684327607E+00  0.541213286535711E+00
 -0.262612752275220E+00  0.574012809291045E+00 -0.326133842557900E+00  0.547490366958512E+00 -0.336235302965067E+00  0.542513259796320E+00
 -0.271851050921439E+00  0.575875951756769E+00 -0.335440362376143E+00  0.548878246650826E+00 -0.345549906888599E+00  0.543821886859266E+00
 -0.280949856525051E+00  0.577729792552866E+00 -0.344598041345441E+00  0.550275370198733E+00 -0.354714424791211E+00  0.545142882629663E+00
 -0.289909391871510E+00  0.579577952776561E+00 -0.353607768627668E+00  0.551685270829677E+00 -0.363729851227868E+00  0.546479752545250E+00
 -0.298729976243541E+00  0.581423884865143E+00 -0.362470495147215E+00  0.553111282449296E+00 -0.372597236251945E+00  0.547835798605746E+00
 -0.307412015310580E+00  0.583270874891270E+00 -0.371187223972676E+00  0.554556545366982E+00 -0.381317675970308E+00  0.549214125641071E+00
 -0.315955991699581E+00  0.585122045320249E+00 -0.379759001545033E+00  0.556024012232768E+00 -0.389892303963432E+00  0.550617647744456E+00
 -0.324362456227568E+00  0.586980358155187E+00 -0.388186909703055E+00  0.557516454118976E+00 -0.398322283516790E+00  0.552049094806244E+00
 -0.332632019772972E+00  0.588848618402971E+00 -0.396472058456581E+00  0.559036466688862E+00 -0.406608800610229E+00  0.553511019093189E+00
 -0.340765345760282E+00  0.590729477800889E+00 -0.404615579458895E+00  0.560586476402489E+00 -0.414753057613211E+00  0.555005801826054E+00
 -0.348763143230771E+00  0.592625438750032E+00 -0.412618620130464E+00  0.562168746717263E+00 -0.422756267635291E+00  0.556535659715553E+00
 -0.356626160470826E+00  0.594538858407597E+00 -0.420482338387749E+00  0.563785384247042E+00 -0.430619649483119E+00  0.558102651423111E+00
 -0.364355179168811E+00  0.596471952895716E+00 -0.428207897932521E+00  0.565438344849480E+00 -0.438344423177343E+00  0.559708683918627E+00
 -0.371951009071083E+00  0.598426801589535E+00 -0.435796464059034E+00  0.567129439616406E+00 -0.445931805985089E+00  0.561355518712455E+00
 -0.379414483107960E+00  0.600405351451913E+00 -0.443249199938514E+00  0.568860340746572E+00 -0.453383008926065E+00  0.563044777943265E+00
 -0.386746452960821E+00  0.602409421386386E+00 -0.450567263342548E+00  0.570632587284063E+00 -0.460699233712763E+00  0.564777950307290E+00
 -0.393947785042162E+00  0.604440706583870E+00 -0.457751803769173E+00  0.572447590709189E+00 -0.467881670087663E+00  0.566556396817859E+00
 -0.401019356861262E+00  0.606500782842084E+00 -0.464803959937656E+00  0.574306640371693E+00 -0.474931493522753E+00  0.568381356387011E+00
 -0.407962053749078E+00  0.608591110839799E+00 -0.471724857620164E+00  0.576210908758733E+00 -0.481849863249012E+00  0.570253951223503E+00
 -0.414776765917032E+00  0.610713040350831E+00 -0.478515607780586E+00  0.578161456592422E+00 -0.488637920585797E+00  0.572175192043667E+00
 -0.421464385825524E+00  0.612867814385188E+00 -0.485177304992907E+00  0.580159237753593E+00 -0.495296787542243E+00  0.574145983093414E+00
 -0.428025805839147E+00  0.615056573247031E+00 -0.491711026113454E+00  0.582205104030172E+00 -0.501827565664885E+00  0.576167126981187E+00
 -0.434461916146800E+00  0.617280358501062E+00 -0.498117829183266E+00  0.584299809689918E+00 -0.508231335107693E+00  0.578239329323018E+00
 -0.440773602926113E+00  0.619540116840683E+00 -0.504398752538619E+00  0.586444015878494E+00 -0.514509153902572E+00  0.580363203201855E+00
 -0.446961746732778E+00  0.621836703852820E+00 -0.510554814109459E+00  0.588638294844795E+00 -0.520662057410155E+00  0.582539273444255E+00
 -0.453027221096563E+00  0.624170887675618E+00 -0.516587010887083E+00  0.590883133996299E+00 -0.526691057932380E+00  0.584767980718232E+00
 -0.458970891306945E+00  0.626543352546371E+00 -0.522496318543926E+00  0.593178939787845E+00 -0.532597144469855E+00  0.587049685456617E+00
 -0.464793613372395E+00  0.628954702238078E+00 -0.528283691189724E+00  0.595526041447784E+00 -0.538381282608483E+00  0.589384671610756E+00
 -0.470496233138427E+00  0.631405463383849E+00 -0.533950061249619E+00  0.597924694545869E+00 -0.544044414521156E+00  0.591773150239673E+00
 -0.476079585550544E+00  0.633896088689161E+00 -0.539496339451027E+00  0.600375084407551E+00 -0.549587459071550E+00  0.594215262940111E+00
 -0.481544494049191E+00  0.636426960032560E+00 -0.544923414907199E+00  0.602877329379610E+00 -0.555011312008221E+00  0.596711085122997E+00
 -0.486891770084747E+00  0.638998391455962E+00 -0.550232155286465E+00  0.605431483952177E+00 -0.560316846238246E+00  0.599260629141999E+00
 -0.492122212741481E+00  0.641610632046130E+00 -0.555423407057139E+00  0.608037541742343E+00 -0.565504912170645E+00  0.601863847279872E+00
 -0.497236608460198E+00  0.644263868709303E+00 -0.560497995798946E+00  0.610695438344559E+00 -0.570576338120717E+00  0.604520634598305E+00
 -0.502235730850101E+00  0.646958228841214E+00 -0.565456726572653E+00  0.613405054053072E+00 -0.575531930767226E+00  0.607230831656917E+00
 -0.507120340581129E+00  0.649693782895003E+00 -0.570300384340387E+00  0.616166216461587E+00 -0.580372475655186E+00  0.609994227106985E+00
 -0.511891185348680E+00  0.652470546849718E+00 -0.575029734429773E+00  0.618978702945294E+00 -0.585098737737627E+00  0.612810560165398E+00
 -0.516548999903319E+00  0.655288484582240E+00 -0.579645523035699E+00  0.621842243030306E+00 -0.589711461950398E+00  0.615679522974183E+00
 -0.521094506138619E+00  0.658147510145558E+00 -0.584148477754115E+00  0.624756520655465E+00 -0.594211373814659E+00  0.618600762850843E+00
 -0.525528413230869E+00  0.661047489956428E+00 -0.588539308142771E+00  0.627721176331324E+00 -0.598599180062183E+00  0.621573884434550E+00
 -0.529851417824885E+00  0.663988244895465E+00 -0.592818706304340E+00  0.630735809201004E+00 -0.602875569279172E+00  0.624598451733141E+00
 -0.534064204260647E+00  0.666969552322737E+00 -0.596987347487794E+00  0.633799979007464E+00 -0.607041212564620E+00  0.627673990075620E+00
 -0.538167444835919E+00  0.669991148011956E+00 -0.601045890704331E+00  0.636913207971595E+00 -0.611096764199777E+00  0.630799987974767E+00
 -0.542161800100430E+00  0.673052728006301E+00 -0.604994979354504E+00  0.640074982585352E+00 -0.615042862325533E+00  0.633975898904228E+00
 -0.546047919177573E+00  0.676153950398917E+00 -0.608835241863584E+00  0.643284755324041E+00 -0.618880129624942E+00  0.637201142994326E+00
 -0.549826440109926E+00  0.679294437041047E+00 -0.612567292322462E+00  0.646541946281656E+00 -0.622609174008387E+00  0.640475108650623E+00
 -0.553497990225227E+00  0.682473775180724E+00 -0.616191731131709E+00  0.649845944733055E+00 -0.626230589299154E+00  0.643797154099112E+00
 -0.557063186519735E+00  0.685691519034879E+00 -0.619709145646649E+00  0.653196110626570E+00 -0.629744955917452E+00  0.647166608861744E+00
 -0.560522636056186E+00  0.688947191297650E+00 -0.623120110821564E+00  0.656591776010520E+00 -0.633152841561126E+00  0.650582775165833E+00
 -0.563876936373799E+00  0.692240284587581E+00 -0.626425189851328E+00  0.660032246396914E+00 -0.636454801881535E+00  0.654044929290693E+00
 -0.567126675908040E+00  0.695570262836359E+00 -0.629624934808991E+00  0.663516802065512E+00 -0.639651381153221E+00  0.657552322854744E+00
 -0.570272434418038E+00  0.698936562621622E+00 -0.632719887277999E+00  0.667044699311248E+00 -0.642743112936207E+00  0.661104184046139E+00
 -0.573314783419773E+00  0.702338594446285E+00 -0.635710578977878E+00  0.670615171637878E+00 -0.645730520729868E+00  0.664699718799831E+00
 -0.576254286623325E+00  0.705775743966778E+00 -0.638597532382401E+00  0.674227430900599E+00 -0.648614118617501E+00  0.668338111923842E+00
 -0.579091500372627E+00  0.709247373172461E+00 -0.641381261329322E+00  0.677880668400220E+00 -0.651394411900790E+00  0.672018528177382E+00
 -0.581826974086351E+00  0.712752821518420E+00 -0.644062271620937E+00  0.681574055931384E+00 -0.654071897723544E+00  0.675740113303306E+00
 -0.584461250698655E+00  0.716291407013767E+00 -0.646641061614809E+00  0.685306746787164E+00 -0.656647065684111E+00  0.679501995017297E+00
 -0.586994867098682E+00  0.719862427267461E+00 -0.649118122804094E+00  0.689077876722292E+00 -0.659120398436013E+00  0.683303283956011E+00
 -0.589428354567792E+00  0.723465160493599E+00 -0.651493940386983E+00  0.692886564877131E+00 -0.661492372276417E+00  0.687143074586340E+00
 -0.591762239213641E+00  0.727098866478049E+00 -0.653768993824891E+00  0.696731914664404E+00 -0.663763457722110E+00  0.691020446077806E+00
 -0.593997042400292E+00  0.730762787508198E+00 -0.655943757389028E+00  0.700613014620592E+00 -0.665934120072734E+00  0.694934463140008E+00
 -0.596133281173652E+00  0.734456149267532E+00 -0.658018700695119E+00  0.704528939223826E+00 -0.668004819961085E+00  0.698884176826951E+00
 -0.598171468681608E+00  0.738178161696682E+00 -0.659994289226041E+00  0.708478749679966E+00 -0.669976013890333E+00  0.702868625309965E+00
 -0.600112114588301E+00  0.741928019822487E+00 -0.661870984842234E+00  0.712461494678524E+00 -0.671848154758062E+00  0.706886834620855E+00
 -0.601955725482041E+00  0.745704904556571E+00 -0.663649246279765E+00  0.716476211119958E+00 -0.673621692367085E+00  0.710937819366830E+00
 -0.603702805276463E+00  0.749507983464850E+00 -0.665329529635965E+00  0.720521924815809E+00 -0.675297073922995E+00  0.715020583418661E+00
 -0.605353855604515E+00  0.753336411509340E+00 -0.666912288842619E+00  0.724597651163053E+00 -0.676874744518492E+00  0.719134120573456E+00
 -0.606909376204999E+00  0.757189331763529E+00 -0.668397976126680E+00  0.728702395794004E+00 -0.678355147604497E+00  0.723277415193374E+00
 -0.608369865301357E+00  0.761065876102577E+00 -0.669787042458541E+00  0.732835155202982E+00 -0.679738725448149E+00  0.727449442821487E+00
 -0.609735819972494E+00  0.764965165869501E+00 -0.671079937987916E+00  0.736994917350944E+00 -0.681025919577741E+00  0.731649170775991E+00
 -0.611007736515440E+00  0.768886312518455E+00 -0.672277112467376E+00  0.741180662249180E+00 -0.682217171214740E+00  0.735875558723850E+00
 -0.612186110799681E+00  0.772828418236191E+00 -0.673379015663657E+00  0.745391362523123E+00 -0.683312921692972E+00  0.740127559234933E+00
 -0.613271438613051E+00  0.776790576542694E+00 -0.674386097756811E+00  0.749625983957289E+00 -0.684313612865152E+00  0.744404118317626E+00