VARIABLES = "X", "Y", "U"
 ZONE I=          51 , J=          51 ,DATAPACKING=POINT
            -4.0000000            -4.0000000            18.8993545
            -4.0000000            -3.8400000            16.4268376
            -4.0000000            -3.6800000            14.2777007
            -4.0000000            -3.5200000            12.4133422
            -4.0000000            -3.3600000            10.7990432
            -4.0000000            -3.2000000             9.4036446
            -4.0000000            -3.0400000             8.1992602
            -4.0000000            -2.8800000             7.1610256
            -4.0000000            -2.7200000             6.2668818
            -4.0000000            -2.5600000             5.4973891
            -4.0000000            -2.4000000             4.8355624
            -4.0000000            -2.2400000             4.2667172
            -4.0000000            -2.0800000             3.7783118
            -4.0000000            -1.9200000             3.3597745
            -4.0000000            -1.7600000             3.0023008
            -4.0000000            -1.6000000             2.6986158
            -4.0000000            -1.4400000             2.4426979
            -4.0000000            -1.2800000             2.2294754
            -4.0000000            -1.1200000             2.0545181
            -4.0000000            -0.9600000             1.9137654
            -4.0000000            -0.8000000             1.8033408
            -4.0000000            -0.6400000             1.7194943
            -4.0000000            -0.4800000             1.6586864
            -4.0000000            -0.3200000             1.6177839
            -4.0000000            -0.1600000             1.5943085
            -4.0000000             0.0000000             1.5866667
            -4.0000000             0.1600000             1.5943085
            -4.0000000             0.3200000             1.6177839
            -4.0000000             0.4800000             1.6586864
            -4.0000000             0.6400000             1.7194943
            -4.0000000             0.8000000             1.8033408
            -4.0000000             0.9600000             1.9137654
            -4.0000000             1.1200000             2.0545181
            -4.0000000             1.2800000             2.2294754
            -4.0000000             1.4400000             2.4426979
            -4.0000000             1.6000000             2.6986158
            -4.0000000             1.7600000             3.0023008
            -4.0000000             1.9200000             3.3597745
            -4.0000000             2.0800000             3.7783118
            -4.0000000             2.2400000             4.2667172
            -4.0000000             2.4000000             4.8355624
            -4.0000000             2.5600000             5.4973891
            -4.0000000             2.7200000             6.2668818
            -4.0000000             2.8800000             7.1610256
            -4.0000000             3.0400000             8.1992602
            -4.0000000             3.2000000             9.4036446
            -4.0000000             3.3600000            10.7990432
            -4.0000000             3.5200000            12.4133422
            -4.0000000             3.6800000            14.2777007
            -4.0000000             3.8400000            16.4268376
            -4.0000000             4.0000000            18.8993545
            -3.9000000            -4.0000000            17.4607527
            -3.9000000            -3.8400000            15.1202770
            -3.9000000            -3.6800000            13.0915176
            -3.9000000            -3.5200000            11.3367347
            -3.9000000            -3.3600000             9.8220132
            -3.9000000            -3.2000000             8.5169348
            -3.9000000            -3.0400000             7.3942885
            -3.9000000            -2.8800000             6.4298196
            -3.9000000            -2.7200000             5.6020183
            -3.9000000            -2.5600000             4.8919423
            -3.9000000            -2.4000000             4.2830658
            -3.9000000            -2.2400000             3.7611412
            -3.9000000            -2.0800000             3.3140583
            -3.9000000            -1.9200000             2.9316864
            -3.9000000            -1.7600000             2.6056824
            -3.9000000            -1.6000000             2.3292559
            -3.9000000            -1.4400000             2.0968843
            -3.9000000            -1.2800000             1.9039862
            -3.9000000            -1.1200000             1.7465754
            -3.9000000            -0.9600000             1.6209433
            -3.9000000            -0.8000000             1.5234335
            -3.9000000            -0.6400000             1.4503707
            -3.9000000            -0.4800000             1.3981649
            -3.9000000            -0.3200000             1.3635578
            -3.9000000            -0.1600000             1.3439303
            -3.9000000             0.0000000             1.3375840
            -3.9000000             0.1600000             1.3439303
            -3.9000000             0.3200000             1.3635578
            -3.9000000             0.4800000             1.3981649
            -3.9000000             0.6400000             1.4503707
            -3.9000000             0.8000000             1.5234335
            -3.9000000             0.9600000             1.6209433
            -3.9000000             1.1200000             1.7465754
            -3.9000000             1.2800000             1.9039862
            -3.9000000             1.4400000             2.0968843
            -3.9000000             1.6000000             2.3292559
            -3.9000000             1.7600000             2.6056824
            -3.9000000             1.9200000             2.9316864
            -3.9000000             2.0800000             3.3140583
            -3.9000000             2.2400000             3.7611412
            -3.9000000             2.4000000             4.2830658
            -3.9000000             2.5600000             4.8919423
            -3.9000000             2.7200000             5.6020183
            -3.9000000             2.8800000             6.4298196
            -3.9000000             3.0400000             7.3942885
            -3.9000000             3.2000000             8.5169348
            -3.9000000             3.3600000             9.8220132
            -3.9000000             3.5200000            11.3367347
            -3.9000000             3.6800000            13.0915176
            -3.9000000             3.8400000            15.1202770
            -3.9000000             4.0000000            17.4607527
            -3.8000000            -4.0000000            16.1343836
            -3.8000000            -3.8400000            13.9184923
            -3.8000000            -3.6800000            12.0031664
            -3.8000000            -3.5200000            10.3515135
            -3.8000000            -3.3600000             8.9304079
            -3.8000000            -3.2000000             7.7101577
            -3.8000000            -3.0400000             6.6642088
            -3.8000000            -2.8800000             5.7688946
            -3.8000000            -2.7200000             5.0032275
            -3.8000000            -2.5600000             4.3487309
            -3.8000000            -2.4000000             3.7893027
            -3.8000000            -2.2400000             3.3110943
            -3.8000000            -2.0800000             2.9023908
            -3.8000000            -1.9200000             2.5534701
            -3.8000000            -1.7600000             2.2564270
            -3.8000000            -1.6000000             2.0049442
            -3.8000000            -1.4400000             1.7940025
            -3.8000000            -1.2800000             1.6195311
            -3.8000000            -1.1200000             1.4780186
            -3.8000000            -0.9600000             1.3661372
            -3.8000000            -0.8000000             1.2804643
            -3.8000000            -0.6400000             1.2173866
            -3.8000000            -0.4800000             1.1732287
            -3.8000000            -0.3200000             1.1445618
            -3.8000000            -0.1600000             1.1285864
            -3.8000000             0.0000000             1.1234731
            -3.8000000             0.1600000             1.1285864
            -3.8000000             0.3200000             1.1445618
            -3.8000000             0.4800000             1.1732287
            -3.8000000             0.6400000             1.2173866
            -3.8000000             0.8000000             1.2804643
            -3.8000000             0.9600000             1.3661372
            -3.8000000             1.1200000             1.4780186
            -3.8000000             1.2800000             1.6195311
            -3.8000000             1.4400000             1.7940025
            -3.8000000             1.6000000             2.0049442
            -3.8000000             1.7600000             2.2564270
            -3.8000000             1.9200000             2.5534701
            -3.8000000             2.0800000             2.9023908
            -3.8000000             2.2400000             3.3110943
            -3.8000000             2.4000000             3.7893027
            -3.8000000             2.5600000             4.3487309
            -3.8000000             2.7200000             5.0032275
            -3.8000000             2.8800000             5.7688946
            -3.8000000             3.0400000             6.6642088
            -3.8000000             3.2000000             7.7101577
            -3.8000000             3.3600000             8.9304079
            -3.8000000             3.5200000            10.3515135
            -3.8000000             3.6800000            12.0031664
            -3.8000000             3.8400000            13.9184923
            -3.8000000             4.0000000            16.1343836
            -3.7000000            -4.0000000            14.9122816
            -3.7000000            -3.8400000            12.8138197
            -3.7000000            -3.6800000            11.0052679
            -3.7000000            -3.5200000             9.4505680
            -3.7000000            -3.3600000             8.1173730
            -3.7000000            -3.2000000             6.9767041
            -3.7000000            -3.0400000             6.0026500
            -3.7000000            -2.8800000             5.1721121
            -3.7000000            -2.7200000             4.4645994
            -3.7000000            -2.5600000             3.8620696
            -3.7000000            -2.4000000             3.3488070
            -3.7000000            -2.2400000             2.9113221
            -3.7000000            -2.0800000             2.5382543
            -3.7000000            -1.9200000             2.2202539
            -3.7000000            -1.7600000             1.9498244
            -3.7000000            -1.6000000             1.7211056
            -3.7000000            -1.4400000             1.5295839
            -3.7000000            -1.2800000             1.3717218
            -3.7000000            -1.1200000             1.2445215
            -3.7000000            -0.9600000             1.1450775
            -3.7000000            -0.8000000             1.0702224
            -3.7000000            -0.6400000             1.0163938
            -3.7000000            -0.4800000             0.9797886
            -3.7000000            -0.3200000             0.9567543
            -3.7000000            -0.1600000             0.9442650
            -3.7000000             0.0000000             0.9403324
            -3.7000000             0.1600000             0.9442650
            -3.7000000             0.3200000             0.9567543
            -3.7000000             0.4800000             0.9797886
            -3.7000000             0.6400000             1.0163938
            -3.7000000             0.8000000             1.0702224
            -3.7000000             0.9600000             1.1450775
            -3.7000000             1.1200000             1.2445215
            -3.7000000             1.2800000             1.3717218
            -3.7000000             1.4400000             1.5295839
            -3.7000000             1.6000000             1.7211056
            -3.7000000             1.7600000             1.9498244
            -3.7000000             1.9200000             2.2202539
            -3.7000000             2.0800000             2.5382543
            -3.7000000             2.2400000             2.9113221
            -3.7000000             2.4000000             3.3488070
            -3.7000000             2.5600000             3.8620696
            -3.7000000             2.7200000             4.4645994
            -3.7000000             2.8800000             5.1721121
            -3.7000000             3.0400000             6.0026500
            -3.7000000             3.2000000             6.9767041
            -3.7000000             3.3600000             8.1173730
            -3.7000000             3.5200000             9.4505680
            -3.7000000             3.6800000            11.0052679
            -3.7000000             3.8400000            12.8138197
            -3.7000000             4.0000000            14.9122816
            -3.6000000            -4.0000000            13.7869986
            -3.6000000            -3.8400000            11.7991019
            -3.6000000            -3.6800000            10.0909368
            -3.6000000            -3.5200000             8.6272692
            -3.6000000            -3.3600000             7.3765213
            -3.6000000            -3.2000000             6.3104190
            -3.6000000            -3.0400000             5.4036812
            -3.6000000            -2.8800000             4.6337611
            -3.6000000            -2.7200000             3.9806411
            -3.6000000            -2.5600000             3.4266815
            -3.6000000            -2.4000000             2.9565152
            -3.6000000            -2.2400000             2.5569691
            -3.6000000            -2.0800000             2.2169927
            -3.6000000            -1.9200000             1.9275661
            -3.6000000            -1.7600000             1.6815665
            -3.6000000            -1.6000000             1.4735686
            -3.6000000            -1.4400000             1.2995618
            -3.6000000            -1.2800000             1.1565656
            -3.6000000            -1.1200000             1.0421443
            -3.6000000            -0.9600000             0.9538706
            -3.6000000            -0.8000000             0.8888674
            -3.6000000            -0.6400000             0.8436131
            -3.6000000            -0.4800000             0.8141261
            -3.6000000            -0.3200000             0.7964645
            -3.6000000            -0.1600000             0.7873245
            -3.6000000             0.0000000             0.7845299
            -3.6000000             0.1600000             0.7873245
            -3.6000000             0.3200000             0.7964645
            -3.6000000             0.4800000             0.8141261
            -3.6000000             0.6400000             0.8436131
            -3.6000000             0.8000000             0.8888674
            -3.6000000             0.9600000             0.9538706
            -3.6000000             1.1200000             1.0421443
            -3.6000000             1.2800000             1.1565656
            -3.6000000             1.4400000             1.2995618
            -3.6000000             1.6000000             1.4735686
            -3.6000000             1.7600000             1.6815665
            -3.6000000             1.9200000             1.9275661
            -3.6000000             2.0800000             2.2169927
            -3.6000000             2.2400000             2.5569691
            -3.6000000             2.4000000             2.9565152
            -3.6000000             2.5600000             3.4266815
            -3.6000000             2.7200000             3.9806411
            -3.6000000             2.8800000             4.6337611
            -3.6000000             3.0400000             5.4036812
            -3.6000000             3.2000000             6.3104190
            -3.6000000             3.3600000             7.3765213
            -3.6000000             3.5200000             8.6272692
            -3.6000000             3.6800000            10.0909368
            -3.6000000             3.8400000            11.7991019
            -3.6000000             4.0000000            13.7869986
            -3.5000000            -4.0000000            12.7515813
            -3.5000000            -3.8400000            10.8676657
            -3.5000000            -3.6800000             9.2537610
            -3.5000000            -3.5200000             7.8754481
            -3.5000000            -3.3600000             6.7019124
            -3.5000000            -3.2000000             5.7055786
            -3.5000000            -3.0400000             4.8617887
            -3.5000000            -2.8800000             4.1485345
            -3.5000000            -2.7200000             3.5462509
            -3.5000000            -2.5600000             3.0376716
            -3.5000000            -2.4000000             2.6077391
            -3.5000000            -2.2400000             2.2435517
            -3.5000000            -2.0800000             1.9343205
            -3.5000000            -1.9200000             1.6713082
            -3.5000000            -1.7600000             1.4477229
            -3.5000000            -1.6000000             1.2585432
            -3.5000000            -1.4400000             1.1002516
            -3.5000000            -1.2800000             0.9704465
            -3.5000000            -1.1200000             0.8673122
            -3.5000000            -0.9600000             0.7889762
            -3.5000000            -0.8000000             0.7329055
            -3.5000000            -0.6400000             0.6956121
            -3.5000000            -0.4800000             0.6728711
            -3.5000000            -0.3200000             0.6603707
            -3.5000000            -0.1600000             0.6544706
            -3.5000000             0.0000000             0.6527799
            -3.5000000             0.1600000             0.6544706
            -3.5000000             0.3200000             0.6603707
            -3.5000000             0.4800000             0.6728711
            -3.5000000             0.6400000             0.6956121
            -3.5000000             0.8000000             0.7329055
            -3.5000000             0.9600000             0.7889762
            -3.5000000             1.1200000             0.8673122
            -3.5000000             1.2800000             0.9704465
            -3.5000000             1.4400000             1.1002516
            -3.5000000             1.6000000             1.2585432
            -3.5000000             1.7600000             1.4477229
            -3.5000000             1.9200000             1.6713082
            -3.5000000             2.0800000             1.9343205
            -3.5000000             2.2400000             2.2435517
            -3.5000000             2.4000000             2.6077391
            -3.5000000             2.5600000             3.0376716
            -3.5000000             2.7200000             3.5462509
            -3.5000000             2.8800000             4.1485345
            -3.5000000             3.0400000             4.8617887
            -3.5000000             3.2000000             5.7055786
            -3.5000000             3.3600000             6.7019124
            -3.5000000             3.5200000             7.8754481
            -3.5000000             3.6800000             9.2537610
            -3.5000000             3.8400000            10.8676657
            -3.5000000             4.0000000            12.7515813
            -3.4000000            -4.0000000            11.7995504
            -3.4000000            -3.8400000            10.0133024
            -3.4000000            -3.6800000             8.4877815
            -3.4000000            -3.5200000             7.1893762
            -3.4000000            -3.3600000             6.0880320
            -3.4000000            -3.2000000             5.1568707
            -3.4000000            -3.0400000             4.3718544
            -3.4000000            -2.8800000             3.7115057
            -3.4000000            -2.7200000             3.1566949
            -3.4000000            -2.5600000             2.6905013
            -3.4000000            -2.4000000             2.2981387
            -3.4000000            -2.2400000             1.9669298
            -3.4000000            -2.0800000             1.6862953
            -3.4000000            -1.9200000             1.4477273
            -3.4000000            -1.7600000             1.2447148
            -3.4000000            -1.6000000             1.0725986
            -3.4000000            -1.4400000             0.9283324
            -3.4000000            -1.2800000             0.8101086
            -3.4000000            -1.1200000             0.7167977
            -3.4000000            -0.9600000             0.6471855
            -3.4000000            -0.8000000             0.5991664
            -3.4000000            -0.6400000             0.5692837
            -3.4000000            -0.4800000             0.5529827
            -3.4000000            -0.3200000             0.5454796
            -3.4000000            -0.1600000             0.5427344
            -3.4000000             0.0000000             0.5421202
            -3.4000000             0.1600000             0.5427344
            -3.4000000             0.3200000             0.5454796
            -3.4000000             0.4800000             0.5529827
            -3.4000000             0.6400000             0.5692837
            -3.4000000             0.8000000             0.5991664
            -3.4000000             0.9600000             0.6471855
            -3.4000000             1.1200000             0.7167977
            -3.4000000             1.2800000             0.8101086
            -3.4000000             1.4400000             0.9283324
            -3.4000000             1.6000000             1.0725986
            -3.4000000             1.7600000             1.2447148
            -3.4000000             1.9200000             1.4477273
            -3.4000000             2.0800000             1.6862953
            -3.4000000             2.2400000             1.9669298
            -3.4000000             2.4000000             2.2981387
            -3.4000000             2.5600000             2.6905013
            -3.4000000             2.7200000             3.1566949
            -3.4000000             2.8800000             3.7115057
            -3.4000000             3.0400000             4.3718544
            -3.4000000             3.2000000             5.1568707
            -3.4000000             3.3600000             6.0880320
            -3.4000000             3.5200000             7.1893762
            -3.4000000             3.6800000             8.4877815
            -3.4000000             3.8400000            10.0133024
            -3.4000000             4.0000000            11.7995504
            -3.3000000            -4.0000000            10.9248790
            -3.3000000            -3.8400000             9.2302474
            -3.3000000            -3.6800000             7.7874736
            -3.3000000            -3.5200000             6.5637477
            -3.3000000            -3.3600000             5.5297743
            -3.3000000            -3.2000000             4.6593756
            -3.3000000            -3.0400000             3.9291364
            -3.3000000            -2.8800000             3.3181075
            -3.3000000            -2.7200000             2.8075833
            -3.3000000            -2.5600000             2.3809638
            -3.3000000            -2.4000000             2.0236968
            -3.3000000            -2.2400000             1.7232802
            -3.3000000            -2.0800000             1.4692895
            -3.3000000            -1.9200000             1.2533884
            -3.3000000            -1.7600000             1.0692891
            -3.3000000            -1.6000000             0.9126414
            -3.3000000            -1.4400000             0.7808307
            -3.3000000            -1.2800000             0.6726433
            -3.3000000            -1.1200000             0.5877059
            -3.3000000            -0.9600000             0.5256020
            -3.3000000            -0.8000000             0.4847821
            -3.3000000            -0.6400000             0.4618275
            -3.3000000            -0.4800000             0.4517333
            -3.3000000            -0.3200000             0.4491092
            -3.3000000            -0.1600000             0.4494514
            -3.3000000             0.0000000             0.4498897
            -3.3000000             0.1600000             0.4494514
            -3.3000000             0.3200000             0.4491092
            -3.3000000             0.4800000             0.4517333
            -3.3000000             0.6400000             0.4618275
            -3.3000000             0.8000000             0.4847821
            -3.3000000             0.9600000             0.5256020
            -3.3000000             1.1200000             0.5877059
            -3.3000000             1.2800000             0.6726433
            -3.3000000             1.4400000             0.7808307
            -3.3000000             1.6000000             0.9126414
            -3.3000000             1.7600000             1.0692891
            -3.3000000             1.9200000             1.2533884
            -3.3000000             2.0800000             1.4692895
            -3.3000000             2.2400000             1.7232802
            -3.3000000             2.4000000             2.0236968
            -3.3000000             2.5600000             2.3809638
            -3.3000000             2.7200000             2.8075833
            -3.3000000             2.8800000             3.3181075
            -3.3000000             3.0400000             3.9291364
            -3.3000000             3.2000000             4.6593756
            -3.3000000             3.3600000             5.5297743
            -3.3000000             3.5200000             6.5637477
            -3.3000000             3.6800000             7.7874736
            -3.3000000             3.8400000             9.2302474
            -3.3000000             4.0000000            10.9248790
            -3.2000000            -4.0000000            10.1219735
            -3.2000000            -3.8400000             8.5131623
            -3.2000000            -3.6800000             7.1477300
            -3.2000000            -3.5200000             5.9936626
            -3.2000000            -3.3600000             5.0224261
            -3.2000000            -3.2000000             4.2085502
            -3.2000000            -3.0400000             3.5292512
            -3.2000000            -2.8800000             2.9641133
            -3.2000000            -2.7200000             2.4948499
            -3.2000000            -2.5600000             2.1051618
            -3.2000000            -2.4000000             1.7806939
            -3.2000000            -2.2400000             1.5090701
            -3.2000000            -2.0800000             1.2799627
            -3.2000000            -1.9200000             1.0851456
            -3.2000000            -1.7600000             0.9184911
            -3.2000000            -1.6000000             0.7758919
            -3.2000000            -1.4400000             0.6551045
            -3.2000000            -1.2800000             0.5554814
            -3.2000000            -1.1200000             0.4774661
            -3.2000000            -0.9600000             0.4216237
            -3.2000000            -0.8000000             0.3871660
            -3.2000000            -0.6400000             0.3707357
            -3.2000000            -0.4800000             0.3666975
            -3.2000000            -0.3200000             0.3688748
            -3.2000000            -0.1600000             0.3722431
            -3.2000000             0.0000000             0.3737079
            -3.2000000             0.1600000             0.3722431
            -3.2000000             0.3200000             0.3688748
            -3.2000000             0.4800000             0.3666975
            -3.2000000             0.6400000             0.3707357
            -3.2000000             0.8000000             0.3871660
            -3.2000000             0.9600000             0.4216237
            -3.2000000             1.1200000             0.4774661
            -3.2000000             1.2800000             0.5554814
            -3.2000000             1.4400000             0.6551045
            -3.2000000             1.6000000             0.7758919
            -3.2000000             1.7600000             0.9184911
            -3.2000000             1.9200000             1.0851456