 VARIABLES =  $x$  const $\Delta t $  $x$2  var $\Delta t $
 ZONE I=         341 ,DATAPACKING=POINT
  0.300000000000000E+01  0.400000000000000E+01  0.300000000000000E+01  0.400000000000000E+01
  0.303139970814719E+01  0.315831622797619E+01  0.308952603115463E+01  0.267240647891495E-01
  0.305023367312936E+01  0.257854066195321E+01  0.308540866892443E+01 -0.700951228569154E-01
  0.306210401399733E+01  0.213754208730657E+01  0.307906650644686E+01 -0.725105833131219E-01
  0.306962483267300E+01  0.177994662715477E+01  0.307265679147534E+01 -0.727495955821571E-01
  0.307418744490311E+01  0.147820394890056E+01  0.306622932981332E+01 -0.729390987264203E-01
  0.307660291970459E+01  0.121793543636320E+01  0.305978516311414E+01 -0.731290003256367E-01
  0.307737840717280E+01  0.991476543694983E+00  0.305332417922532E+01 -0.733203698135982E-01
  0.307685076990567E+01  0.794616978195585E+00  0.304684624117254E+01 -0.735133106153650E-01
  0.307525698416859E+01  0.624801727177276E+00  0.304035120837392E+01 -0.737078571340938E-01
  0.307277353587961E+01  0.480108990144878E+00  0.303383893800566E+01 -0.739040339872314E-01
  0.306953927914266E+01  0.358697801927083E+00  0.302730928517019E+01 -0.741018647572239E-01
  0.306566884671356E+01  0.258559377818373E+00  0.302076210183184E+01 -0.743013292783669E-01
  0.306126039271646E+01  0.177462493244668E+00  0.301419724094272E+01 -0.745025367708573E-01
  0.305639986322419E+01  0.113011273848036E+00  0.300761455029638E+01 -0.747054737562743E-01
  0.305116317375205E+01  0.627543007352040E-01  0.300101387635245E+01 -0.749101630457541E-01
  0.304561720777290E+01  0.243025415533312E-01  0.299439506337237E+01 -0.751166303029831E-01
  0.303982025027587E+01 -0.456972346386463E-02  0.298775795331880E+01 -0.753249018837848E-01
  0.303382225338356E+01 -0.258533024783212E-01  0.298110238580387E+01 -0.755350047089265E-01
  0.302766516466660E+01 -0.412644482017636E-01  0.297442819803927E+01 -0.757469662699933E-01
  0.302138342246590E+01 -0.522337780085008E-01  0.296773522478522E+01 -0.759608146444527E-01
  0.301500463318491E+01 -0.599173593829190E-01  0.296102329829815E+01 -0.761765785118180E-01
  0.300855039047130E+01 -0.652227245468434E-01  0.295429224827673E+01 -0.763942871704032E-01
  0.300203717054336E+01 -0.688431141919985E-01  0.294754190180660E+01 -0.766139705546535E-01
  0.299547723450174E+01 -0.712945120885360E-01  0.294077208330343E+01 -0.768356592530742E-01
  0.298887947928813E+01 -0.729515461435924E-01  0.293398261445438E+01 -0.770593845267818E-01
  0.298225019660686E+01 -0.740797859298780E-01  0.292717331415791E+01 -0.772851783287035E-01
  0.297559371787972E+01 -0.748631863040369E-01  0.292034399846189E+01 -0.775130733234505E-01
  0.296891293949710E+01 -0.754263399655541E-01  0.291349448049990E+01 -0.777431029078961E-01
  0.296220973452355E+01 -0.758518089635770E-01  0.290662457042564E+01 -0.779753012324850E-01
  0.295548526433520E+01 -0.761931492353481E-01  0.289973407534554E+01 -0.782097032233074E-01
  0.294874020702818E+01 -0.764843852897243E-01  0.289282279924928E+01 -0.784463446049687E-01
  0.294197491986239E+01 -0.767466982499402E-01  0.288589054293827E+01 -0.786852619242906E-01
  0.293518955155996E+01 -0.769930155474793E-01  0.287893710395210E+01 -0.789264925748777E-01
  0.292838411787281E+01 -0.772310776166008E-01  0.287196227649261E+01 -0.791700748225890E-01
  0.292155855113730E+01 -0.774654354110621E-01  0.286496585134587E+01 -0.794160478319522E-01
  0.291471273197023E+01 -0.776987200558405E-01  0.285794761580160E+01 -0.796644516935644E-01
  0.290784650905583E+01 -0.779324310283897E-01  0.285090735357026E+01 -0.799153274525207E-01
  0.290095971120561E+01 -0.781674143872812E-01  0.284384484469754E+01 -0.801687171379186E-01
  0.289405215453360E+01 -0.784041465597480E-01  0.283675986547617E+01 -0.804246637934852E-01
  0.288712364661963E+01 -0.786428991385943E-01  0.282965218835499E+01 -0.806832115093794E-01
  0.288017398885899E+01 -0.788838325803762E-01  0.282252158184523E+01 -0.809444054552207E-01
  0.287320297774500E+01 -0.791270483917934E-01  0.281536781042371E+01 -0.812082919144036E-01
  0.286621040553701E+01 -0.793726176169094E-01  0.280819063443300E+01 -0.814749183197548E-01
  0.285919606058167E+01 -0.796205960869944E-01  0.280098980997843E+01 -0.817443332905967E-01
  0.285215972744236E+01 -0.798710324326607E-01  0.279376508882163E+01 -0.820165866712835E-01
  0.284510118692374E+01 -0.801239722205384E-01  0.278651621827078E+01 -0.822917295712793E-01
  0.283802021603985E+01 -0.803794600570058E-01  0.277924294106706E+01 -0.825698144068505E-01
  0.283091658795143E+01 -0.806375406469243E-01  0.277194499526753E+01 -0.828508949444523E-01
  0.282379007188622E+01 -0.808982593259907E-01  0.276462211412396E+01 -0.831350263458885E-01
  0.281664043304936E+01 -0.811616623333671E-01  0.275727402595768E+01 -0.834222652153331E-01
  0.280946743252711E+01 -0.814277969589625E-01  0.274990045403015E+01 -0.837126696483037E-01
  0.280227082718587E+01 -0.816967116317591E-01  0.274250111640917E+01 -0.840062992826837E-01
  0.279505036956703E+01 -0.819684559813744E-01  0.273507572583041E+01 -0.843032153518948E-01
  0.278780580777804E+01 -0.822430808881925E-01  0.272762398955427E+01 -0.846034807403287E-01
  0.278053688537976E+01 -0.825206385292525E-01  0.272014560921759E+01 -0.849071600411505E-01
  0.277324334126994E+01 -0.828011824232286E-01  0.271264028068034E+01 -0.852143196165972E-01
  0.276592490956289E+01 -0.830847674760458E-01  0.270510769386667E+01 -0.855250276608965E-01
  0.275858131946500E+01 -0.833714500278633E-01  0.269754753260047E+01 -0.858393542659436E-01
  0.275121229514613E+01 -0.836612879017939E-01  0.268995947443487E+01 -0.861573714898791E-01
  0.274381755560657E+01 -0.839543404545759E-01  0.268234319047565E+01 -0.864791534287207E-01
  0.273639681453946E+01 -0.842506686293470E-01  0.267469834519816E+01 -0.868047762912105E-01
  0.272894978018841E+01 -0.845503350106467E-01  0.266702459625743E+01 -0.871343184770499E-01
  0.272147615520026E+01 -0.848534038817698E-01  0.265932159429132E+01 -0.874678606587041E-01
  0.271397563647256E+01 -0.851599412845911E-01  0.265158898271624E+01 -0.878054858669711E-01
  0.270644791499574E+01 -0.854700150819923E-01  0.264382639751511E+01 -0.881472795805205E-01
  0.269889267568957E+01 -0.857836950230223E-01  0.263603346701730E+01 -0.884933298196217E-01
  0.269130959723384E+01 -0.861010528109358E-01  0.262820981167006E+01 -0.888437272442954E-01
  0.268369835189280E+01 -0.864221621742597E-01  0.262035504292446E+01 -0.891985382677595E-01
  0.267605860533330E+01 -0.867470989410472E-01  0.261246876643720E+01 -0.895579102858211E-01
  0.266839001643612E+01 -0.870759411164909E-01  0.260455057680143E+01 -0.899219204683018E-01
  0.266069223710037E+01 -0.874087689640734E-01  0.259660006040084E+01 -0.902906691797209E-01
  0.265296491204055E+01 -0.877456650904485E-01  0.258861679451240E+01 -0.906642617517776E-01
  0.264520767857593E+01 -0.880867145342572E-01  0.258060034696317E+01 -0.910428070091857E-01
  0.263742016641196E+01 -0.884320048590934E-01  0.257255027582503E+01 -0.914264172644410E-01
  0.262960199741318E+01 -0.887816262508520E-01  0.256446612910140E+01 -0.918152084490293E-01
  0.262175278536750E+01 -0.891356716197049E-01  0.255634744440144E+01 -0.922093002636244E-01
  0.261387213574110E+01 -0.894942367069649E-01  0.254819374860048E+01 -0.926088163371515E-01
  0.260595964542382E+01 -0.898574201971186E-01  0.254000455748608E+01 -0.930138843942354E-01
  0.259801490246429E+01 -0.902253238353247E-01  0.253177937538897E+01 -0.934246364314570E-01
  0.259003748579459E+01 -0.905980525506947E-01  0.252351769479801E+01 -0.938412089029619E-01
  0.258202696494363E+01 -0.909757145856956E-01  0.251521899595828E+01 -0.942637429160104E-01
  0.257398289973891E+01 -0.913584216320364E-01  0.250688274645155E+01 -0.946923844371034E-01
  0.256590483999596E+01 -0.917462889734247E-01  0.249850840075802E+01 -0.951272845093651E-01
  0.255779232519489E+01 -0.921394356356064E-01  0.249009539979834E+01 -0.955685994819157E-01
  0.254964488414334E+01 -0.925379845441336E-01  0.248164317045488E+01 -0.960164912520211E-01
  0.254146203462517E+01 -0.929420626903308E-01  0.247315112507100E+01 -0.964711275208673E-01
  0.253324328303412E+01 -0.933518013059699E-01  0.246461866092714E+01 -0.969326820638740E-01
  0.252498812399166E+01 -0.937673360471972E-01  0.245604515969239E+01 -0.974013350165306E-01
  0.251669603994817E+01 -0.941888071882948E-01  0.244742998685006E+01 -0.978772731768178E-01
  0.250836650076661E+01 -0.946163598259053E-01  0.243877249109589E+01 -0.983606903253605E-01
  0.249999896328763E+01 -0.950501440943900E-01  0.243007200370709E+01 -0.988517875645511E-01
  0.249159287087519E+01 -0.954903153930455E-01  0.242132783788063E+01 -0.993507736779830E-01
  0.248314765294161E+01 -0.959370346259558E-01  0.241253928803885E+01 -0.998578655116431E-01
  0.247466272445083E+01 -0.963904684553171E-01  0.240370562910041E+01 -0.100373288378433E+00
  0.246613748539872E+01 -0.968507895691361E-01  0.239482611571447E+01 -0.100897276487723E+00
  0.245757132026908E+01 -0.973181769642749E-01  0.238589998145578E+01 -0.101430073401777E+00
  0.244896359746399E+01 -0.977928162458896E-01  0.237692643797830E+01 -0.101971932521062E+00
  0.244031366870696E+01 -0.982748999443932E-01  0.236790467315677E+01 -0.102523094033438E+00
  0.243162086841726E+01 -0.987646278511673E-01  0.235883385390267E+01 -0.103083875919809E+00
  0.242288451305387E+01 -0.992622073743404E-01  0.234971311983867E+01 -0.103654547219565E+00
  0.241410390042697E+01 -0.997678539160660E-01  0.234054158544386E+01 -0.104235403890220E+00
  0.240527830897526E+01 -0.100281791272846E+00  0.233131833840754E+01 -0.104826756659813E+00
  0.239640699700681E+01 -0.100804252060575E+00  0.232204243839623E+01 -0.105428930021229E+00
  0.238748920190126E+01 -0.101335478166135E+00  0.231271291581983E+01 -0.106042262758707E+00
  0.237852413927102E+01 -0.101875721227501E+00  0.230332877053703E+01 -0.106667108728877E+00
  0.236951100207869E+01 -0.102425243144513E+00  0.229388897048768E+01 -0.107303837726982E+00
  0.236044895970800E+01 -0.102984316622653E+00  0.228439245024591E+01 -0.107952836419101E+00
  0.235133715698530E+01 -0.103553225752360E+00  0.227483810948785E+01 -0.108614509342302E+00
  0.234217471314817E+01 -0.104132266626652E+00  0.226522481136808E+01 -0.109289279978057E+00
  0.233296072075788E+01 -0.104721748000079E+00  0.225555138079784E+01 -0.109977591905207E+00
  0.232369424455160E+01 -0.105321991992307E+00  0.224581660261773E+01 -0.110679910039525E+00
  0.231437432023066E+01 -0.105933334839929E+00  0.223601921965695E+01 -0.111396721967611E+00
  0.230499995318002E+01 -0.106556127700446E+00  0.222615793067041E+01 -0.112128539383698E+00
  0.229557011711453E+01 -0.107190737512735E+00  0.221623138814415E+01 -0.112875899638818E+00
  0.228608375264645E+01 -0.107837547918747E+00  0.220623819595872E+01 -0.113639367412833E+00
  0.227653976576896E+01 -0.108496960251603E+00  0.219617690582679E+01 -0.114419514794277E+00
  0.226693702624922E+01 -0.109169394595826E+00  0.218604601873066E+01 -0.115217005363006E+00
  0.225727436592460E+01 -0.109855290925962E+00  0.217584397640449E+01 -0.116032483361979E+00
  0.224755057689470E+01 -0.110555110330512E+00  0.216556916154741E+01 -0.116866639852837E+00
  0.223776440960140E+01 -0.111269336328807E+00  0.215521989410944E+01 -0.117720205951495E+00
  0.222791457078834E+01 -0.111998476289223E+00  0.214479442773512E+01 -0.118593953849312E+00
  0.221799972133051E+01 -0.112743062958061E+00  0.213429094602888E+01 -0.119488699443181E+00
  0.220801847392366E+01 -0.113503656109376E+00  0.212370755856278E+01 -0.120405305481104E+00
  0.219796939062256E+01 -0.114280844327179E+00  0.211304229659134E+01 -0.121344685045799E+00
  0.218785098021565E+01 -0.115075246932672E+00  0.210229310844461E+01 -0.122307805369363E+00
  0.217766169542281E+01 -0.115887516070608E+00  0.209145785456901E+01 -0.123295692007073E+00
  0.216739992990160E+01 -0.116718338970452E+00  0.208053430218273E+01 -0.124309433408872E+00
  0.215706401504560E+01 -0.117568440399802E+00  0.206952011833978E+01 -0.125350165587940E+00
  0.214665221655725E+01 -0.118438585329600E+00  0.205841286808943E+01 -0.126419153418194E+00
  0.213616273077544E+01 -0.119329581832923E+00  0.204721000178117E+01 -0.127517694734998E+00
  0.212559368073628E+01 -0.120242284241823E+00  0.203590885101725E+01 -0.128647182326070E+00
  0.211494311194300E+01 -0.121177596589584E+00  0.202450662032977E+01 -0.129809104501809E+00
  0.210420898781863E+01 -0.122136476369244E+00  0.201300037848349E+01 -0.131005051706088E+00
  0.209338918481189E+01 -0.123119938643037E+00  0.200138704909240E+01 -0.132236725187091E+00
  0.208248148712386E+01 -0.124129060541876E+00  0.198966340041358E+01 -0.133505946928818E+00
  0.207148358101888E+01 -0.125164986199076E+00  0.197782603421297E+01 -0.134814670765096E+00
  0.206039304867951E+01 -0.126228932168358E+00  0.196587137230915E+01 -0.136164975250186E+00
  0.204920736156017E+01 -0.127322193382876E+00  0.195379564799927E+01 -0.137559149199738E+00
  0.203792387318904E+01 -0.128446149719797E+00  0.194159488514131E+01 -0.138999612759203E+00
  0.202653981136172E+01 -0.129602273243912E+00  0.192926488539002E+01 -0.140488983994870E+00
  0.201505226966310E+01 -0.130792136214173E+00  0.191680121016491E+01 -0.142030093296888E+00
  0.200345819824603E+01 -0.132017419949121E+00  0.190419916103996E+01 -0.143626003980461E+00
  0.199175439378634E+01 -0.133279924661275E+00  0.189145375681274E+01 -0.145280018581127E+00
  0.197993748852333E+01 -0.134581580387001E+00  0.187855971443151E+01 -0.146995772616310E+00
  0.196800393828292E+01 -0.135924459157641E+00  0.186551141615031E+01 -0.148777181255631E+00
  0.195595000936670E+01 -0.137310788580348E+00  0.185230288317346E+01 -0.150628518593858E+00
  0.194377176417421E+01 -0.138742967023732E+00  0.183892774240588E+01 -0.152554455176479E+00
  0.193146504540738E+01 -0.140223580634953E+00  0.182537918810063E+01 -0.154560087026050E+00
  0.191902545868417E+01 -0.141755422452255E+00  0.181164994548339E+01 -0.156651051319241E+00
  0.190644835336351E+01 -0.143341513921382E+00  0.179773221784073E+01 -0.158833510492269E+00
  0.189372880135423E+01 -0.144985129177304E+00  0.178361763719577E+01 -0.161114263124740E+00
  0.188086157364588E+01 -0.146689822516199E+00  0.176929720327275E+01 -0.163500808707256E+00
  0.186784111425879E+01 -0.148459459558859E+00  0.175476122119893E+01 -0.166001502433760E+00
  0.185466151126279E+01 -0.150298252698729E+00  0.173999921831823E+01 -0.168625596753951E+00
  0.184131646445656E+01 -0.152210801539128E+00  0.172499985814562E+01 -0.171383395038069E+00
  0.182779924923216E+01 -0.154202139159642E+00  0.170975084474795E+01 -0.174286461214352E+00
  0.181410267606811E+01 -0.156277785216968E+00  0.169423880056210E+01 -0.177347740285596E+00
  0.180021904499708E+01 -0.158443807088185E+00  0.167844913393661E+01 -0.180581797599391E+00
  0.178614009427737E+01 -0.160706890514114E+00  0.166236588886472E+01 -0.184005135434759E+00
  0.177185694235596E+01 -0.163074421509404E+00  0.164597155559883E+01 -0.187636437174093E+00
  0.175736002203863E+01 -0.165554581690352E+00  0.162924686628746E+01 -0.191497031653744E+00
  0.174263900557331E+01 -0.168156459651976E+00  0.161217053659743E+01 -0.195611294000702E+00
  0.172768271909521E+01 -0.170890181629902E+00  0.159471897569812E+01 -0.200007282712833E+00
  0.171247904456523E+01 -0.173767065446303E+00  0.157686593134317E+01 -0.204717438178113E+00
  0.169701480693993E+01 -0.176799802710299E+00  0.155858206162068E+01 -0.209779432272310E+00
  0.168127564382161E+01 -0.180002675486049E+00  0.153983442983476E+01 -0.215237324559628E+00
  0.166524585422226E+01 -0.183391815242706E+00  0.152058588071829E+01 -0.221142938027708E+00
  0.164890822230061E+01 -0.186985513976734E+00  0.150079428017201E+01 -0.227557637341061E+00
  0.163224381094672E+01 -0.190804600109723E+00  0.148041157695361E+01 -0.234554610649635E+00
  0.161523171883004E+01 -0.194872895335686E+00  0.145938263469451E+01 -0.242221827424900E+00
  0.159784879290580E+01 -0.199217773330399E+00  0.143764376320339E+01 -0.250665906350762E+00
  0.158006928626949E+01 -0.203870847577110E+00  0.141512086102685E+01 -0.260017277250316E+00
  0.156186444849567E+01 -0.208868824126538E+00  0.139172702072101E+01 -0.270437036021787E+00
  0.154320203196136E+01 -0.214254566783419E+00  0.136735943356293E+01 -0.282126339658468E+00
  0.152404569281153E+01 -0.220078438287628E+00  0.134189531794924E+01 -0.295339342598930E+00
  0.150435425870965E+01 -0.226400003432402E+00  0.131518648517527E+01 -0.310401291174387E+00
  0.148408082666191E+01 -0.233290211559134E+00  0.128705199900464E+01 -0.327734378677803E+00
  0.146317164203624E+01 -0.240834220746922E+00  0.125726806909597E+01 -0.347895265397381E+00
  0.144156469297789E+01 -0.249135090792239E+00  0.122555389705501E+01 -0.371630740667693E+00
  0.141918793059896E+01 -0.258318666872870E+00  0.119155144076342E+01 -0.399962146855726E+00
  0.139595699131385E+01 -0.268540116592246E+00  0.115479583341130E+01 -0.434316684086431E+00
  0.137177224844759E+01 -0.279992795577749E+00  0.111467105277805E+01 -0.476737352093692E+00
  0.134651494780346E+01 -0.292920442970482E+00  0.107034162230166E+01 -0.530229068730298E+00
  0.132004207350400E+01 -0.307634218126757E+00  0.102064407414022E+01 -0.599348961029558E+00
  0.129217942530455E+01 -0.324536903265249E+00  0.963908389343123E+00 -0.691251360726488E+00
  0.126271213198578E+01 -0.344157922393446E+00  0.897652731014918E+00 -0.817614172657187E+00
  0.123137141801592E+01 -0.367205038117397E+00  0.818039088915153E+00 -0.998343053496978E+00
  0.119781577846415E+01 -0.394642371155188E+00  0.718858726784178E+00 -0.126898074259673E+01
  0.116160361298302E+01 -0.427811040219740E+00  0.589562589462058E+00 -0.169587260962609E+01
  0.112215247663007E+01 -0.468620772453262E+00  0.411362431860915E+00 -0.240596974439833E+01
  0.107867675975633E+01 -0.519863381549617E+00  0.150020992603524E+00 -0.362784320832656E+01
  0.103008949874388E+01 -0.585742659591690E+00 -0.251624354599225E+00 -0.560069191775686E+01
  0.974842457158409E+00 -0.672802800545151E+00 -0.840953727068103E+00 -0.753578045704956E+01
  0.910655911742644E+00 -0.791619473794189E+00 -0.148077046057356E+01 -0.621134581543724E+01
  0.834043319692710E+00 -0.960007440076855E+00 -0.186483117204314E+01 -0.258452129618061E+01
  0.739438830746150E+00 -0.120934326064791E+01 -0.199349688452210E+01 -0.661247836498823E+00
  0.617529264399610E+00 -0.159734692947638E+01 -0.202048665057238E+01 -0.751544933251021E-01
  0.451980782744372E+00 -0.223330308543492E+01 -0.201886473953172E+01  0.781786747211158E-01
  0.213217984325835E+00 -0.331720159727165E+01 -0.200983669488940E+01  0.117919081451115E+00
 -0.150287746249181E+00 -0.510995543874975E+01 -0.199884830597040E+01  0.128998066721291E+00
 -0.700151477043746E+00 -0.723394330162781E+01 -0.198727289440476E+01  0.132830716021125E+00
 -0.136670410852046E+01 -0.673650180917531E+01 -0.197545849747811E+01  0.134824291725037E+00
 -0.181155087521053E+01 -0.315624550102042E+01 -0.196349282875277E+01  0.136365949058214E+00
 -0.196879215278346E+01 -0.979581980231193E+00 -0.195139627943435E+01  0.137819563679157E+00
 -0.200893524496502E+01 -0.213161338629829E+00 -0.193917136480185E+01  0.139283741016168E+00
 -0.201300639375021E+01  0.261722661126607E-01 -0.192681563980625E+01  0.140787209380983E+00
 -0.200617242195003E+01  0.997173883823865E-01 -0.191432512475339E+01  0.142340095767548E+00
 -0.199596361080069E+01  0.122954649626750E+00 -0.190169521409430E+01  0.143947569873888E+00
 -0.198464462003519E+01  0.130982231352372E+00 -0.188892091145814E+01  0.145613583493082E+00
 -0.197290173299895E+01  0.134398004107683E+00 -0.187599688344809E+01  0.147342007989743E+00
 -0.196094342270935E+01  0.136421918232337E+00 -0.186291744738650E+01  0.149136878171145E+00
 -0.194883184319139E+01  0.138043198509666E+00 -0.184967655059779E+01  0.151002558820079E+00
 -0.193658371886420E+01  0.139570492766583E+00 -0.183626773831254E+01  0.152943808863739E+00
 -0.192420138553035E+01  0.141102623078441E+00 -0.182268411503510E+01  0.154965819207825E+00
 -0.191168244277502E+01  0.142673069173630E+00 -0.180891830746065E+01  0.157074332937171E+00
 -0.189902278117663E+01  0.144294836107271E+00 -0.179496241042640E+01  0.159275631214142E+00
 -0.188621753204154E+01  0.145974568296229E+00 -0.178080793636437E+01  0.161576646852197E+00
 -0.187326135654873E+01  0.147717059520911E+00 -0.176644575276084E+01  0.163985031500994E+00
 -0.186014852081170E+01  0.149526729489627E+00 -0.175186601821134E+01  0.166509314149571E+00
 -0.184687289907599E+01  0.151408132853564E+00 -0.173705809711201E+01  0.169158945562358E+00
 -0.183342795068130E+01  0.153366158543123E+00 -0.172201047125139E+01  0.171944456457498E+00
 -0.181980668534302E+01  0.155406132025417E+00 -0.170671064147492E+01  0.174877673121883E+00
 -0.180600162113894E+01  0.157533890651971E+00 -0.169114500065511E+01  0.177971829703775E+00
 -0.179200473615955E+01  0.159755856261776E+00 -0.167529870379668E+01  0.181241879166671E+00
 -0.177780741354287E+01  0.162079114309471E+00 -0.165915550165040E+01  0.184704708640255E+00
 -0.176340037908198E+01  0.164511504092026E+00 -0.164269755485236E+01  0.188379485615650E+00
 -0.174877363027245E+01  0.167061723384340E+00 -0.162590521826734E+01  0.192288095762256E+00
 -0.173391635538582E+01  0.169739450762605E+00 -0.160875678056616E+01  0.196455618214215E+00
 -0.171881684084939E+01  0.172555489385653E+00 -0.159122815290956E+01  0.200910891629087E+00
 -0.170346236484723E+01  0.175521936812400E+00 -0.157329251028487E+01  0.205687320303485E+00
 -0.168783907460869E+01  0.178652386529492E+00 -0.155491984449060E+01  0.210823737762949E+00
 -0.167193184429084E+01  0.181962168294326E+00 -0.153607643947904E+01  0.216365615397102E+00
 -0.165572410965782E+01  0.185468636257764E+00 -0.151672422263495E+01  0.222366505066080E+00
 -0.163919767486931E+01  0.189191516255329E+00 -0.149681997281887E+01  0.228889905860628E+00
 -0.162233248555448E+01  0.193153326838206E+00 -0.147631434131852E+01  0.236011663977130E+00
 -0.160510636088953E+01  0.197379892824792E+00 -0.145515062965547E+01  0.243823082054662E+00
 -0.158749467551009E+01  0.201900975767138E+00 -0.143326325736751E+01  0.252435039253343E+00
 -0.156946997962886E+01  0.206751053278527E+00 -0.141057580152220E+01  0.261983390246754E+00
 -0.155100154249227E+01  0.211970289422329E+00 -0.138699849004936E+01  0.272636310339409E+00
 -0.153205480001529E+01  0.217605752422369E+00 -0.136242493199605E+01  0.284604257575922E+00
 -0.151259068167981E+01  0.223712955435993E+00 -0.133672781029550E+01  0.298153770731561E+00
 -0.149256478399630E+01  0.230357823423354E+00 -0.130975312922495E+01  0.313626888369089E+00
 -0.147192634717866E+01  0.237619227835760E+00 -0.128131240131567E+01  0.331468908470336E+00
 -0.145061697694763E+01  0.245592286385264E+00 -0.125117186354113E+01  0.352268883477635E+00
 -0.142856903273961E+01  0.254392705963615E+00 -0.121903731414696E+01  0.376819939722814E+00
 -0.140570357430873E+01  0.264162566048139E+00 -0.118453234254503E+01  0.406211201339919E+00
 -0.138192771655436E+01  0.275078118709042E+00 -0.114716635469733E+01  0.441971508746010E+00
 -0.135713118080481E+01  0.287360453784764E+00 -0.110628640787562E+01  0.486300552236701E+00
 -0.133118173928737E+01  0.301290300478733E+00 -0.106100256227775E+01  0.542452368834213E+00
 -0.130391911118272E+01  0.317228905144204E+00 -0.101006848101612E+01  0.615394049945804E+00
 -0.127514665548810E+01  0.335648004576163E+00 -0.951683566751453E+00  0.712980936061015E+00
 -0.124461987051741E+01  0.357173697211911E+00 -0.883151951398922E+00  0.848140981209280E+00
 -0.121203017011554E+01  0.382652032663189E+00 -0.800269125397993E+00  0.104310979691971E+01
 -0.117698151640279E+01  0.413249385694150E+00 -0.696168862834055E+00  0.133795777363549E+01
 -0.113895598051459E+01  0.450610064761963E+00 -0.559070077010098E+00  0.180803933671210E+01
 -0.109726167128822E+01  0.497110923096606E+00 -0.367827969859137E+00  0.259735774441627E+01
 -0.105095173223057E+01  0.556285785429730E+00 -0.840414555481920E-01  0.395514909769855E+01
 -0.998694271787159E+00  0.633557820378799E+00  0.353116658321420E+00  0.605606755491200E+01
 -0.938556008856778E+00  0.737551799951720E+00  0.973289781033011E+00  0.763622409108368E+01
 -0.867628129496943E+00  0.882541546781933E+00  0.158282986667577E+01  0.549713982831010E+01
 -0.781351624948949E+00  0.109320120752209E+01  0.190496157494405E+01  0.203942538201418E+01
 -0.672248158106359E+00  0.141413815069865E+01  0.200335787176270E+01  0.478837138856854E+00
 -0.527448100197301E+00  0.192909954498801E+01  0.202135370320796E+01  0.265901922717111E-01
 -0.323867588740769E+00  0.279574559653682E+01  0.201738981787093E+01 -0.906619889962283E-01
 -0.199767775896831E-01  0.427044247512680E+01  0.200775280170440E+01 -0.121274869525143E+00
  0.447556955351094E+00  0.642739074954066E+01  0.199659243301344E+01 -0.130051393000724E+00
  0.109481520117415E+01  0.751540089393645E+01  0.198495560096650E+01 -0.133299129899456E+00
  0.167070385333959E+01  0.464522136575108E+01  0.197310782498489E+01 -0.135145938547654E+00
  0.192600895913314E+01  0.164403225250550E+01  0.196111561129984E+01 -0.136654884980636E+00
  0.199934492698829E+01  0.430708000508822E+00  0.194899377400193E+01 -0.138106313587558E+00
  0.201344461333131E+01  0.408141963538246E-01  0.193674330805269E+01 -0.139576905932397E+00
  0.200965778004493E+01 -0.790468285835388E-01  0.192436132204498E+01 -0.141089576950659E+00
  0.200040604853834E+01 -0.116287159634637E+00  0.191184367441882E+01 -0.142652891845171E+00
  0.198941366287950E+01 -0.128552672480858E+00  0.189918567332629E+01 -0.144271620390718E+00
  0.197780589380617E+01 -0.133254091248928E+00  0.188638225395017E+01 -0.145949640996280E+00
  0.196592464667672E+01 -0.135663436997181E+00  0.187342801583731E+01 -0.147690849187773E+00
  0.195387312730645E+01 -0.137392219026513E+00  0.186031720541430E+01 -0.149499336815515E+00
  0.194168088292843E+01 -0.138939664725705E+00  0.184704369332316E+01 -0.151379541400131E+00
  0.192935435163086E+01 -0.140463584124604E+00  0.183360094117930E+01 -0.153336306021815E+00
  0.191689251357174E+01 -0.142015886094032E+00  0.181998196193848E+01 -0.155374916690567E+00
  0.190429178454444E+01 -0.143615352159275E+00  0.180617928186336E+01 -0.157501224275615E+00
  0.189154755376426E+01 -0.145270402353404E+00  0.179218488523488E+01 -0.159721631353737E+00
  0.187865466110157E+01 -0.146986318659542E+00  0.177799016114705E+01 -0.162043192527041E+00
  0.186560753366683E+01 -0.148767582063012E+00  0.176358584580233E+01 -0.164473756660584E+00
  0.185240021007702E+01 -0.150618656795978E+00  0.174896194539133E+01 -0.167021999682199E+00
  0.183902632549483E+01 -0.152544277598649E+00  0.173410765819909E+01 -0.169697579826076E+00
  0.182547908087895E+01 -0.154549578989275E+00  0.171901128039712E+01 -0.172511262904815E+00
  0.181175120376156E+01 -0.156640177304198E+00  0.170366010503067E+01 -0.175475145631756E+00
  0.179783490251518E+01 -0.158822242818814E+00  0.168804029146253E+01 -0.178602774241661E+00
  0.178372181420778E+01 -0.161102575463812E+00  0.167213673153363E+01 -0.181909464862469E+00
  0.176940294541247E+01 -0.163488690014995E+00  0.165593287673926E+01 -0.185412515301369E+00
  0.175486860496137E+01 -0.165988914367878E+00  0.163941055296876E+01 -0.189131623583421E+00
  0.174010832734677E+01 -0.168612504102331E+00  0.162254972636795E+01 -0.193089238229120E+00
  0.172511078518237E+01 -0.171369776859438E+00  0.160532824336243E+01 -0.197311136999361E+00
  0.170986368879978E+01 -0.174272270739249E+00  0.158772150549931E+01 -0.201826990097801E+00
  0.169435367064455E+01 -0.177332931902073E+00  0.156970209634904E+01 -0.206671189074559E+00
  0.167856615162572E+01 -0.180566337839151E+00  0.155123932430860E+01 -0.211883800754056E+00
  0.166248518593372E+01 -0.183988964446129E+00  0.153229866639912E+01 -0.217511745760808E+00
  0.164609328003425E+01 -0.187619507202845E+00  0.151284110208494E+01 -0.223610378280304E+00
  0.162937118052004E+01 -0.191479269603329E+00  0.149282228529771E+01 -0.230245425290786E+00
  0.161229762418861E+01 -0.195592635724677E+00  0.147219152123103E+01 -0.237495503674180E+00
  0.159484904202039E+01 -0.199987648800019E+00  0.145089049431678E+01 -0.245455435286260E+00
  0.157699920652929E+01 -0.204696724331116E+00  0.142885165291740E+01 -0.254240538274554E+00
  0.155871880907255E+01 -0.209757535297692E+00  0.140599615879597E+01 -0.263992394212163E+00
  0.153997494989124E+01 -0.215214119339788E+00  0.138223124705159E+01 -0.274886632680292E+00
  0.152073051856278E+01 -0.221118274783352E+00  0.135744677707625E+01 -0.287143540880881E+00
  0.150094343568781E+01 -0.227531336076311E+00  0.133151067684894E+01 -0.301042802552139E+00
  0.148056571729440E+01 -0.234526452628093E+00  0.130426284059019E+01 -0.316944309396088E+00
  0.145954231058282E+01 -0.242191542774586E+00  0.127550681296948E+01 -0.335318017164566E+00
  0.143780963171609E+01 -0.250633163639532E+00  0.124499827573703E+01 -0.356787689365863E+00
  0.141529371107261E+01 -0.259981638961510E+00  0.121242878664412E+01 -0.382196309001745E+00
  0.139190781519667E+01 -0.270397937806443E+00  0.117740233835764E+01 -0.412706271885490E+00
  0.136754936215069E+01 -0.282083025370582E+00  0.113940076612388E+01 -0.449956873095003E+00
  0.134209586948301E+01 -0.295290758574520E+00  0.109773135246108E+01 -0.496319067172330E+00
  0.131539955774895E+01 -0.310345950544925E+00  0.105144514247725E+01 -0.555320962570612E+00
  0.128728005478812E+01 -0.327670110671392E+00  0.999205414869588E+00 -0.632383962859794E+00
  0.125751436877876E+01 -0.347818810795740E+00  0.939068086088255E+00 -0.736146494344778E+00
  0.122582285628539E+01 -0.371537046704668E+00  0.868100139604293E+00 -0.880945033570472E+00
  0.119184919039756E+01 -0.399843120802373E+00  0.781687288943501E+00 -0.109166343898854E+01
  0.115513112615682E+01 -0.434158917405639E+00  0.672221414287222E+00 -0.141355412404426E+01