 VARIABLES =  $x$
 ZONE I=        1001 ,DATAPACKING=POINT
  0.300000000000000E+01  0.400000000000000E+01
  0.304665000000000E+01  0.209122120000000E+01
  0.306904642340286E+01  0.108876135532254E+01
  0.307970394644660E+01  0.553287134064579E+00
  0.308435427803518E+01  0.265236908060971E+00
  0.308584286779450E+01  0.109835192518060E+00
  0.308564315405297E+01  0.259086370288230E-01
  0.308453513558811E+01 -0.194282175187073E-01
  0.308293644050627E+01 -0.439197256128532E-01
  0.308107193649227E+01 -0.571536761084971E-01
  0.307906300827288E+01 -0.643117566923785E-01
  0.307697523655458E+01 -0.681933173428887E-01
  0.307484405117678E+01 -0.703096210128445E-01
  0.307268858252879E+01 -0.714758384594554E-01
  0.307051915126655E+01 -0.721312545077951E-01
  0.306834131925147E+01 -0.725123601703370E-01
  0.306615807981663E+01 -0.727463433053948E-01
  0.306397104120569E+01 -0.729015378610005E-01
  0.306178106546383E+01 -0.730146203296550E-01
  0.305958861302583E+01 -0.731052560986644E-01
  0.305739392838808E+01 -0.731839789944488E-01
  0.305519714005248E+01 -0.732564260156408E-01
  0.305299831426985E+01 -0.733256108850524E-01
  0.305079748391041E+01 -0.733931434303735E-01
  0.304859466395696E+01 -0.734598829126496E-01
  0.304638985981082E+01 -0.735262877171259E-01
  0.304418307174017E+01 -0.735926023353622E-01
  0.304197429725997E+01 -0.736589572459934E-01
  0.303976353240400E+01 -0.737254222153785E-01
  0.303755077240397E+01 -0.737920347130818E-01
  0.303533601205177E+01 -0.738588150458294E-01
  0.303311924589238E+01 -0.739257744099615E-01
  0.303090046832654E+01 -0.739929191718440E-01
  0.302867967366525E+01 -0.740602531410230E-01
  0.302645685615864E+01 -0.741277787762677E-01
  0.302423201001125E+01 -0.741954978248575E-01
  0.302200512938994E+01 -0.742634116611431E-01
  0.301977620842812E+01 -0.743315214656916E-01
  0.301754524122778E+01 -0.743998283200055E-01
  0.301531222186055E+01 -0.744683332565701E-01
  0.301307714436813E+01 -0.745370372852875E-01
  0.301084000276239E+01 -0.746059414074393E-01
  0.300860079102540E+01 -0.746750466230703E-01
  0.300635950310928E+01 -0.747443539349026E-01
  0.300411613293605E+01 -0.748138643504242E-01
  0.300187067439743E+01 -0.748835788830162E-01
  0.299962312135468E+01 -0.749534985525751E-01
  0.299737346763836E+01 -0.750236243858709E-01
  0.299512170704812E+01 -0.750939574167658E-01
  0.299286783335248E+01 -0.751644986863609E-01
  0.299061184028864E+01 -0.752352492431057E-01
  0.298835372156222E+01 -0.753062101428874E-01
  0.298609347084706E+01 -0.753773824491113E-01
  0.298383108178498E+01 -0.754487672327762E-01
  0.298156654798555E+01 -0.755203655725478E-01
  0.297929986302588E+01 -0.755921785548311E-01
  0.297703102045035E+01 -0.756642072738433E-01
  0.297476001377042E+01 -0.757364528316867E-01
  0.297248683646435E+01 -0.758089163384225E-01
  0.297021148197699E+01 -0.758815989121453E-01
  0.296793394371952E+01 -0.759545016790580E-01
  0.296565421506921E+01 -0.760276257735482E-01
  0.296337228936917E+01 -0.761009723382649E-01
  0.296108815992813E+01 -0.761745425241965E-01
  0.295880182002013E+01 -0.762483374907490E-01
  0.295651326288434E+01 -0.763223584058263E-01
  0.295422248172472E+01 -0.763966064459099E-01
  0.295192946970986E+01 -0.764710827961412E-01
  0.294963421997261E+01 -0.765457886504032E-01
  0.294733672560991E+01 -0.766207252114040E-01
  0.294503697968247E+01 -0.766958936907614E-01
  0.294273497521453E+01 -0.767712953090881E-01
  0.294043070519356E+01 -0.768469312960779E-01
  0.293812416257000E+01 -0.769228028905929E-01
  0.293581534025701E+01 -0.769989113407523E-01
  0.293350423113015E+01 -0.770752579040215E-01
  0.293119082802712E+01 -0.771518438473026E-01
  0.292887512374746E+01 -0.772286704470259E-01
  0.292655711105228E+01 -0.773057389892427E-01
  0.292423678266398E+01 -0.773830507697189E-01
  0.292191413126592E+01 -0.774606070940298E-01
  0.291958914950214E+01 -0.775384092776564E-01
  0.291726182997710E+01 -0.776164586460819E-01
  0.291493216525530E+01 -0.776947565348908E-01
  0.291260014786106E+01 -0.777733042898677E-01
  0.291026577027815E+01 -0.778521032670987E-01
  0.290792902494950E+01 -0.779311548330724E-01
  0.290558990427691E+01 -0.780104603647841E-01
  0.290324840062070E+01 -0.780900212498391E-01
  0.290090450629938E+01 -0.781698388865595E-01
  0.289855821358939E+01 -0.782499146840903E-01
  0.289620951472470E+01 -0.783302500625079E-01
  0.289385840189653E+01 -0.784108464529301E-01
  0.289150486725300E+01 -0.784917052976265E-01
  0.288914890289878E+01 -0.785728280501312E-01
  0.288679050089477E+01 -0.786542161753563E-01
  0.288442965325777E+01 -0.787358711497071E-01
  0.288206635196009E+01 -0.788177944611986E-01
  0.287970058892924E+01 -0.788999876095735E-01
  0.287733235604755E+01 -0.789824521064218E-01
  0.287496164515182E+01 -0.790651894753015E-01
  0.287258844803299E+01 -0.791482012518613E-01
  0.287021275643572E+01 -0.792314889839645E-01
  0.286783456205806E+01 -0.793150542318144E-01
  0.286545385655107E+01 -0.793988985680817E-01
  0.286307063151844E+01 -0.794830235780334E-01
  0.286068487851612E+01 -0.795674308596627E-01
  0.285829658905191E+01 -0.796521220238212E-01
  0.285590575458511E+01 -0.797370986943530E-01
  0.285351236652609E+01 -0.798223625082296E-01
  0.285111641623594E+01 -0.799079151156874E-01
  0.284871789502601E+01 -0.799937581803664E-01
  0.284631679415757E+01 -0.800798933794511E-01
  0.284391310484135E+01 -0.801663224038128E-01
  0.284150681823715E+01 -0.802530469581541E-01
  0.283909792545343E+01 -0.803400687611550E-01
  0.283668641754687E+01 -0.804273895456211E-01
  0.283427228552195E+01 -0.805150110586334E-01
  0.283185552033055E+01 -0.806029350617006E-01
  0.282943611287145E+01 -0.806911633309131E-01
  0.282701405398994E+01 -0.807796976570985E-01
  0.282458933447738E+01 -0.808685398459801E-01
  0.282216194507072E+01 -0.809576917183368E-01
  0.281973187645205E+01 -0.810471551101653E-01
  0.281729911924816E+01 -0.811369318728445E-01
  0.281486366403008E+01 -0.812270238733023E-01
  0.281242550131258E+01 -0.813174329941837E-01
  0.280998462155373E+01 -0.814081611340224E-01
  0.280754101515437E+01 -0.814992102074138E-01
  0.280509467245771E+01 -0.815905821451907E-01
  0.280264558374875E+01 -0.816822788946009E-01
  0.280019373925385E+01 -0.817743024194882E-01
  0.279773912914019E+01 -0.818666547004743E-01
  0.279528174351528E+01 -0.819593377351449E-01
  0.279282157242645E+01 -0.820523535382367E-01
  0.279035860586033E+01 -0.821457041418281E-01
  0.278789283374234E+01 -0.822393915955321E-01
  0.278542424593611E+01 -0.823334179666914E-01
  0.278295283224302E+01 -0.824277853405771E-01
  0.278047858240161E+01 -0.825224958205889E-01
  0.277800148608703E+01 -0.826175515284597E-01
  0.277552153291053E+01 -0.827129546044610E-01
  0.277303871241884E+01 -0.828087072076129E-01
  0.277055301409366E+01 -0.829048115158963E-01
  0.276806442735106E+01 -0.830012697264675E-01
  0.276557294154090E+01 -0.830980840558768E-01
  0.276307854594626E+01 -0.831952567402895E-01
  0.276058122978284E+01 -0.832927900357103E-01
  0.275808098219834E+01 -0.833906862182105E-01
  0.275557779227190E+01 -0.834889475841588E-01
  0.275307164901346E+01 -0.835875764504550E-01
  0.275056254136313E+01 -0.836865751547673E-01
  0.274805045819058E+01 -0.837859460557727E-01
  0.274553538829442E+01 -0.838856915334008E-01
  0.274301732040152E+01 -0.839858139890816E-01
  0.274049624316641E+01 -0.840863158459962E-01
  0.273797214517055E+01 -0.841871995493310E-01
  0.273544501492176E+01 -0.842884675665364E-01
  0.273291484085349E+01 -0.843901223875886E-01
  0.273038161132412E+01 -0.844921665252549E-01
  0.272784531461635E+01 -0.845946025153634E-01
  0.272530593893643E+01 -0.846974329170765E-01
  0.272276347241348E+01 -0.848006603131683E-01
  0.272021790309879E+01 -0.849042873103057E-01
  0.271766921896510E+01 -0.850083165393343E-01
  0.271511740790584E+01 -0.851127506555679E-01
  0.271256245773442E+01 -0.852175923390825E-01
  0.271000435618348E+01 -0.853228442950148E-01
  0.270744309090412E+01 -0.854285092538644E-01
  0.270487864946514E+01 -0.855345899718015E-01
  0.270231101935229E+01 -0.856410892309786E-01
  0.269974018796743E+01 -0.857480098398464E-01
  0.269716614262780E+01 -0.858553546334754E-01
  0.269458887056517E+01 -0.859631264738817E-01
  0.269200835892505E+01 -0.860713282503576E-01
  0.268942459476585E+01 -0.861799628798077E-01
  0.268683756505806E+01 -0.862890333070893E-01
  0.268424725668342E+01 -0.863985425053588E-01
  0.268165365643403E+01 -0.865084934764228E-01
  0.267905675101151E+01 -0.866188892510948E-01
  0.267645652702611E+01 -0.867297328895569E-01
  0.267385297099585E+01 -0.868410274817277E-01
  0.267124606934558E+01 -0.869527761476355E-01
  0.266863580840612E+01 -0.870649820377969E-01
  0.266602217441330E+01 -0.871776483336020E-01
  0.266340515350704E+01 -0.872907782477050E-01
  0.266078473173042E+01 -0.874043750244209E-01
  0.265816089502870E+01 -0.875184419401285E-01
  0.265553362924838E+01 -0.876329823036799E-01
  0.265290292013619E+01 -0.877479994568157E-01
  0.265026875333813E+01 -0.878634967745877E-01
  0.264763111439842E+01 -0.879794776657873E-01
  0.264498998875854E+01 -0.880959455733813E-01
  0.264234536175614E+01 -0.882129039749544E-01
  0.263969721862402E+01 -0.883303563831586E-01
  0.263704554448910E+01 -0.884483063461699E-01
  0.263439032437128E+01 -0.885667574481522E-01
  0.263173154318241E+01 -0.886857133097286E-01
  0.262906918572519E+01 -0.888051775884606E-01
  0.262640323669201E+01 -0.889251539793343E-01
  0.262373368066385E+01 -0.890456462152554E-01
  0.262106050210914E+01 -0.891666580675512E-01
  0.261838368538258E+01 -0.892881933464817E-01
  0.261570321472399E+01 -0.894102559017583E-01
  0.261301907425708E+01 -0.895328496230711E-01
  0.261033124798830E+01 -0.896559784406254E-01
  0.260763971980555E+01 -0.897796463256864E-01
  0.260494447347700E+01 -0.899038572911331E-01
  0.260224549264977E+01 -0.900286153920211E-01
  0.259954276084872E+01 -0.901539247261554E-01
  0.259683626147514E+01 -0.902797894346719E-01
  0.259412597780540E+01 -0.904062137026293E-01
  0.259141189298968E+01 -0.905332017596102E-01
  0.258869399005060E+01 -0.906607578803329E-01
  0.258597225188183E+01 -0.907888863852736E-01
  0.258324666124677E+01 -0.909175916412979E-01
  0.258051720077710E+01 -0.910468780623047E-01
  0.257778385297137E+01 -0.911767501098799E-01
  0.257504660019357E+01 -0.913072122939613E-01
  0.257230542467166E+01 -0.914382691735153E-01
  0.256956030849608E+01 -0.915699253572251E-01
  0.256681123361828E+01 -0.917021855041906E-01
  0.256405818184916E+01 -0.918350543246400E-01
  0.256130113485754E+01 -0.919685365806545E-01
  0.255854007416861E+01 -0.921026370869053E-01
  0.255577498116232E+01 -0.922373607114028E-01
  0.255300583707177E+01 -0.923727123762599E-01
  0.255023262298158E+01 -0.925086970584678E-01
  0.254745531982624E+01 -0.926453197906860E-01
  0.254467390838841E+01 -0.927825856620461E-01
  0.254188836929724E+01 -0.929204998189694E-01
  0.253909868302659E+01 -0.930590674659997E-01
  0.253630482989334E+01 -0.931982938666505E-01
  0.253350679005557E+01 -0.933381843442673E-01
  0.253070454351074E+01 -0.934787442829054E-01
  0.252789807009388E+01 -0.936199791282237E-01
  0.252508734947572E+01 -0.937618943883945E-01
  0.252227236116080E+01 -0.939044956350292E-01
  0.251945308448557E+01 -0.940477885041219E-01
  0.251662949861641E+01 -0.941917786970092E-01
  0.251380158254766E+01 -0.943364719813480E-01
  0.251096931509967E+01 -0.944818741921113E-01
  0.250813267491669E+01 -0.946279912326016E-01
  0.250529164046486E+01 -0.947748290754842E-01
  0.250244619003007E+01 -0.949223937638387E-01
  0.249959630171588E+01 -0.950706914122298E-01
  0.249674195344132E+01 -0.952197282077994E-01
  0.249388312293870E+01 -0.953695104113776E-01
  0.249101978775142E+01 -0.955200443586152E-01
  0.248815192523166E+01 -0.956713364611380E-01
  0.248527951253810E+01 -0.958233932077219E-01
  0.248240252663362E+01 -0.959762211654911E-01
  0.247952094428287E+01 -0.961298269811384E-01
  0.247663474204991E+01 -0.962842173821693E-01
  0.247374389629576E+01 -0.964393991781702E-01
  0.247084838317591E+01 -0.965953792620996E-01
  0.246794817863781E+01 -0.967521646116059E-01
  0.246504325841827E+01 -0.969097622903695E-01
  0.246213359804094E+01 -0.970681794494714E-01
  0.245921917281357E+01 -0.972274233287885E-01
  0.245629995782539E+01 -0.973875012584160E-01
  0.245337592794439E+01 -0.975484206601179E-01
  0.245044705781448E+01 -0.977101890488055E-01
  0.244751332185274E+01 -0.978728140340462E-01
  0.244457469424653E+01 -0.980363033216011E-01
  0.244163114895059E+01 -0.982006647149936E-01
  0.243868265968406E+01 -0.983659061171096E-01
  0.243572919992750E+01 -0.985320355318293E-01
  0.243277074291984E+01 -0.986990610656925E-01
  0.242980726165525E+01 -0.988669909295961E-01
  0.242683872888000E+01 -0.990358334405280E-01
  0.242386511708924E+01 -0.992055970233343E-01
  0.242088639852376E+01 -0.993762902125241E-01
  0.241790254516665E+01 -0.995479216541099E-01
  0.241491352873993E+01 -0.997205001074873E-01
  0.241191932070114E+01 -0.998940344473520E-01
  0.240891989223981E+01 -0.100068533665657E+00
  0.240591521427397E+01 -0.100244006873613E+00
  0.240290525744648E+01 -0.100420463303724E+00
  0.239988999212143E+01 -0.100597912311872E+00
  0.239686938838034E+01 -0.100776363379445E+00
  0.239384341601840E+01 -0.100955826115504E+00
  0.239081204454060E+01 -0.101136310259005E+00
  0.238777524315779E+01 -0.101317825681058E+00
  0.238473298078270E+01 -0.101500382387243E+00
  0.238168522602585E+01 -0.101683990519970E+00
  0.237863194719144E+01 -0.101868660360893E+00
  0.237557311227309E+01 -0.102054402333374E+00
  0.237250868894959E+01 -0.102241227005003E+00
  0.236943864458052E+01 -0.102429145090167E+00
  0.236636294620181E+01 -0.102618167452685E+00
  0.236328156052121E+01 -0.102808305108490E+00
  0.236019445391370E+01 -0.102999569228375E+00
  0.235710159241680E+01 -0.103191971140803E+00
  0.235400294172578E+01 -0.103385522334774E+00
  0.235089846718881E+01 -0.103580234462756E+00
  0.234778813380203E+01 -0.103776119343687E+00
  0.234467190620448E+01 -0.103973188966037E+00
  0.234154974867300E+01 -0.104171455490943E+00
  0.233842162511696E+01 -0.104370931255419E+00
  0.233528749907298E+01 -0.104571628775627E+00
  0.233214733369948E+01 -0.104773560750238E+00
  0.232900109177115E+01 -0.104976740063854E+00
  0.232584873567335E+01 -0.105181179790525E+00
  0.232269022739633E+01 -0.105386893197331E+00
  0.231952552852942E+01 -0.105593893748062E+00
  0.231635460025508E+01 -0.105802195106971E+00
  0.231317740334276E+01 -0.106011811142624E+00
  0.230999389814282E+01 -0.106222755931834E+00
  0.230680404458011E+01 -0.106435043763693E+00
  0.230360780214765E+01 -0.106648689143697E+00
  0.230040512989998E+01 -0.106863706797966E+00
  0.229719598644653E+01 -0.107080111677569E+00
  0.229398032994481E+01 -0.107297918962953E+00
  0.229075811809343E+01 -0.107517144068478E+00
  0.228752930812502E+01 -0.107737802647054E+00
  0.228429385679904E+01 -0.107959910594904E+00
  0.228105172039436E+01 -0.108183484056437E+00
  0.227780285470177E+01 -0.108408539429232E+00
  0.227454721501630E+01 -0.108635093369161E+00
  0.227128475612939E+01 -0.108863162795625E+00
  0.226801543232093E+01 -0.109092764896926E+00
  0.226473919735105E+01 -0.109323917135774E+00
  0.226145600445190E+01 -0.109556637254925E+00
  0.225816580631905E+01 -0.109790943282969E+00
  0.225486855510293E+01 -0.110026853540261E+00
  0.225156420239991E+01 -0.110264386644999E+00
  0.224825269924334E+01 -0.110503561519464E+00
  0.224493399609427E+01 -0.110744397396412E+00
  0.224160804283206E+01 -0.110986913825637E+00
  0.223827478874482E+01 -0.111231130680698E+00
  0.223493418251949E+01 -0.111477068165826E+00
  0.223158617223193E+01 -0.111724746823008E+00
  0.222823070533659E+01 -0.111974187539254E+00
  0.222486772865609E+01 -0.112225411554064E+00
  0.222149718837055E+01 -0.112478440467081E+00
  0.221811903000662E+01 -0.112733296245954E+00
  0.221473319842636E+01 -0.112990001234412E+00
  0.221133963781581E+01 -0.113248578160551E+00
  0.220793829167336E+01 -0.113509050145344E+00
  0.220452910279780E+01 -0.113771440711388E+00
  0.220111201327617E+01 -0.114035773791874E+00
  0.219768696447129E+01 -0.114302073739823E+00
  0.219425389700905E+01 -0.114570365337556E+00
  0.219081275076532E+01 -0.114840673806438E+00
  0.218736346485271E+01 -0.115113024816887E+00
  0.218390597760690E+01 -0.115387444498662E+00
  0.218044022657274E+01 -0.115663959451441E+00
  0.217696614848992E+01 -0.115942596755697E+00
  0.217348367927848E+01 -0.116223383983874E+00
  0.216999275402379E+01 -0.116506349211896E+00
  0.216649330696133E+01 -0.116791521030987E+00
  0.216298527146103E+01 -0.117078928559844E+00
  0.215946858001127E+01 -0.117368601457153E+00
  0.215594316420247E+01 -0.117660569934474E+00
  0.215240895471031E+01 -0.117954864769495E+00
  0.214886588127859E+01 -0.118251517319679E+00
  0.214531387270156E+01 -0.118550559536315E+00
  0.214175285680595E+01 -0.118852023978975E+00
  0.213818276043246E+01 -0.119155943830413E+00
  0.213460350941688E+01 -0.119462352911901E+00
  0.213101502857065E+01 -0.119771285699032E+00
  0.212741724166103E+01 -0.120082777337995E+00
  0.212381007139073E+01 -0.120396863662350E+00
  0.212019343937701E+01 -0.120713581210311E+00
  0.211656726613030E+01 -0.121032967242564E+00
  0.211293147103225E+01 -0.121355059760628E+00
  0.210928597231323E+01 -0.121679897525799E+00
  0.210563068702922E+01 -0.122007520078666E+00
  0.210196553103818E+01 -0.122337967759263E+00
  0.209829041897572E+01 -0.122671281727831E+00
  0.209460526423021E+01 -0.123007503986266E+00
  0.209090997891717E+01 -0.123346677400225E+00
  0.208720447385305E+01 -0.123688845721962E+00
  0.208348865852828E+01 -0.124034053613889E+00
  0.207976244107957E+01 -0.124382346672907E+00
  0.207602572826158E+01 -0.124733771455524E+00
  0.207227842541766E+01 -0.125088375503810E+00
  0.206852043644997E+01 -0.125446207372192E+00
  0.206475166378863E+01 -0.125807316655154E+00
  0.206097200836015E+01 -0.126171754015852E+00
  0.205718136955491E+01 -0.126539571215690E+00
  0.205337964519376E+01 -0.126910821144905E+00
  0.204956673149370E+01 -0.127285557854176E+00
  0.204574252303258E+01 -0.127663836587324E+00
  0.204190691271281E+01 -0.128045713815138E+00
  0.203805979172402E+01 -0.128431247270356E+00
  0.203420104950469E+01 -0.128820495983884E+00
  0.203033057370265E+01 -0.129213520322263E+00
  0.202644825013442E+01 -0.129610382026472E+00
  0.202255396274342E+01 -0.130011144252092E+00
  0.201864759355687E+01 -0.130415871610911E+00
  0.201472902264153E+01 -0.130824630214018E+00
  0.201079812805800E+01 -0.131237487716454E+00
  0.200685478581378E+01 -0.131654513363480E+00
  0.200289886981482E+01 -0.132075778038543E+00
  0.199893025181563E+01 -0.132501354312998E+00
  0.199494880136796E+01 -0.132931316497679E+00
  0.199095438576772E+01 -0.133365740696384E+00
  0.198694687000046E+01 -0.133804704861369E+00
  0.198292611668504E+01 -0.134248288850932E+00
  0.197889198601555E+01 -0.134696574489187E+00
  0.197484433570147E+01 -0.135149645628125E+00
  0.197078302090584E+01 -0.135607588212055E+00
  0.196670789418154E+01 -0.136070490344551E+00
  0.196261880540544E+01 -0.136538442357999E+00
  0.195851560171056E+01 -0.137011536885882E+00
  0.195439812741584E+01 -0.137489868937919E+00
  0.195026622395376E+01 -0.137973535978192E+00
  0.194611972979552E+01 -0.138462638006401E+00
  0.194195848037367E+01 -0.138957277642404E+00
  0.193778230800230E+01 -0.139457560214179E+00
  0.193359104179438E+01 -0.139963593849393E+00
  0.192938450757640E+01 -0.140475489570737E+00
  0.192516252780006E+01 -0.140993361395216E+00
  0.192092492145092E+01 -0.141517326437584E+00
  0.191667150395388E+01 -0.142047505018133E+00
  0.191240208707539E+01 -0.142584020775047E+00
  0.190811647882216E+01 -0.143127000781548E+00
  0.190381448333632E+01 -0.143676575668085E+00
  0.189949590078686E+01 -0.144232879749802E+00
  0.189516052725714E+01 -0.144796051159577E+00
  0.189080815462827E+01 -0.145366231986898E+00
  0.188643857045834E+01 -0.145943568422896E+00
  0.188205155785713E+01 -0.146528210911839E+00
  0.187764689535619E+01 -0.147120314309437E+00
  0.187322435677408E+01 -0.147720038048316E+00
  0.186878371107654E+01 -0.148327546311046E+00
  0.186432472223129E+01 -0.148943008211120E+00
  0.185984714905740E+01 -0.149566597982320E+00
  0.185535074506873E+01 -0.150198495176936E+00
  0.185083525831135E+01 -0.150838884873306E+00
  0.184630043119458E+01 -0.151487957893205E+00
  0.184174600031533E+01 -0.152145911029641E+00
  0.183717169627551E+01 -0.152812947285621E+00
  0.183257724349203E+01 -0.153489276124530E+00
  0.182796235999919E+01 -0.154175113732778E+00
  0.182332675724288E+01 -0.154870683295424E+00
  0.181867013986648E+01 -0.155576215285528E+00
  0.181399220548773E+01 -0.156291947768041E+00
  0.180929264446629E+01 -0.157018126719089E+00
  0.180457113966155E+01 -0.157755006361566E+00
  0.179982736618003E+01 -0.158502849518019E+00
  0.179506099111199E+01 -0.159261927981872E+00
  0.179027167325660E+01 -0.160032522908105E+00
  0.178545906283505E+01 -0.160814925224597E+00
  0.178062280119109E+01 -0.161609436065401E+00
  0.177576252047815E+01 -0.162416367227348E+00
  0.177087784333245E+01 -0.163236041651430E+00
  0.176596838253124E+01 -0.164068793930566E+00
  0.176103374063546E+01 -0.164914970845436E+00
  0.175607350961584E+01 -0.165774931930205E+00
  0.175108727046160E+01 -0.166649050070108E+00
  0.174607459277067E+01 -0.167537712132991E+00
  0.174103503432056E+01 -0.168441319637080E+00
  0.173596814061847E+01 -0.169360289457414E+00
  0.173087344442978E+01 -0.170295054573581E+00
  0.172575046528331E+01 -0.171246064861577E+00
  0.172059870895228E+01 -0.172213787932863E+00
  0.171541766690926E+01 -0.173198710023900E+00
  0.171020681575370E+01 -0.174201336939751E+00
  0.170496561661033E+01 -0.175222195055580E+00
  0.169969351449657E+01 -0.176261832380249E+00
  0.169438993765711E+01 -0.177320819686489E+00
  0.168905429686352E+01 -0.178399751712578E+00
  0.168368598467672E+01 -0.179499248440801E+00
  0.167828437466990E+01 -0.180619956458454E+00
  0.167284882060932E+01 -0.181762550407651E+00
  0.166737865559022E+01 -0.182927734530723E+00
  0.166187319112496E+01 -0.184116244318586E+00
  0.165633171617997E+01 -0.185328848270139E+00
  0.165075349615833E+01 -0.186566349771455E+00
  0.164513777182401E+01 -0.187829589104303E+00
  0.163948375816389E+01 -0.189119445594461E+00
  0.163379064318315E+01 -0.190436839911193E+00
  0.162805758662928E+01 -0.191782736530367E+00
  0.162228371863971E+01 -0.193158146374844E+00
  0.161646813830737E+01 -0.194564129647081E+00
  0.161060991215841E+01 -0.196001798870335E+00
  0.160470807253525E+01 -0.197472322156447E+00
  0.159876161587821E+01 -0.198976926719973E+00
  0.159276950089780E+01 -0.200516902660388E+00
  0.158673064662933E+01 -0.202093607036302E+00
  0.158064393036077E+01 -0.203708468258061E+00
  0.157450818542381E+01 -0.205362990827829E+00
  0.156832219883733E+01 -0.207058760459325E+00
  0.156208470879126E+01 -0.208797449612747E+00
  0.155579440195791E+01 -0.210580823484266E+00
  0.154944991061652E+01 -0.212410746493728E+00
  0.154304980957530E+01 -0.214289189318998E+00
  0.153659261287389E+01 -0.216218236530776E+00
  0.153007677024733E+01 -0.218200094887763E+00
  0.152350066333079E+01 -0.220237102358913E+00
  0.151686260158219E+01 -0.222331737947184E+00
  0.151016081789751E+01 -0.224486632397950E+00
  0.150339346389085E+01 -0.226704579885084E+00
  0.149655860480860E+01 -0.228988550778893E+00
  0.148965421404338E+01 -0.231341705612800E+00
  0.148267816721016E+01 -0.233767410380099E+00
  0.147562823574238E+01 -0.236269253308542E+00
  0.146850207996157E+01 -0.238851063279292E+00
  0.146129724156827E+01 -0.241516930078209E+00
  0.145401113549647E+01 -0.244271226691992E+00
  0.144664104106680E+01 -0.247118633889848E+00
  0.143918409236587E+01 -0.250064167363736E+00
  0.143163726777101E+01 -0.253113207737453E+00
  0.142399737852897E+01 -0.256271533797823E+00
  0.141626105628657E+01 -0.259545359350906E+00
  0.140842473945796E+01 -0.262941374163644E+00
  0.140048465829850E+01 -0.266466789518142E+00
  0.139243681853856E+01 -0.270129388983366E+00
  0.138427698341082E+01 -0.273937585099584E+00
  0.137600065388263E+01 -0.277900482776538E+00
  0.136760304687909E+01 -0.282027950330141E+00
  0.135907907125266E+01 -0.286330699227767E+00
  0.135042330122095E+01 -0.290820373783122E+00
  0.134162994695395E+01 -0.295509652243324E+00
  0.133269282194574E+01 -0.300412360949232E+00
  0.132360530675113E+01 -0.305543603532777E+00
  0.131436030860418E+01 -0.310919907451129E+00
  0.130495021636136E+01 -0.316559390558297E+00
  0.129536685012396E+01 -0.322481950893837E+00
  0.128560140479162E+01 -0.328709483442942E+00
  0.127564438667645E+01 -0.335266128313266E+00
  0.126548554216260E+01 -0.342178555607721E+00
  0.125511377722386E+01 -0.349476293281848E+00
  0.124451706640670E+01 -0.357192105500199E+00
  0.123368234964024E+01 -0.365362430499888E+00
  0.122259541493963E+01 -0.374027888796041E+00
  0.121124076471400E+01 -0.383233874805344E+00
  0.119960146296032E+01 -0.393031247724695E+00
  0.118765896010340E+01 -0.403477140915065E+00
  0.117539289160762E+01 -0.414635913276688E+00
  0.116278084571032E+01 -0.426580271379381E+00
  0.114979809467512E+01 -0.439392597714213E+00
  0.113641728279133E+01 -0.453166528725781E+00
  0.112260806289570E+01 -0.468008836744762E+00
  0.110833667139211E+01 -0.484041683190003E+00
  0.109356542949915E+01 -0.501405327263227E+00
  0.107825215564194E+01 -0.520261395889406E+00
  0.106234947036525E+01 -0.540796848275120E+00
  0.104580397067157E+01 -0.563228804035158E+00
  0.102855524501030E+01 -0.587810449850212E+00
  0.101053469290502E+01 -0.614838299349740E+00
  0.991664103937594E+00 -0.644661158716063E+00
  0.971853938891743E+00 -0.677691252133410E+00
  0.951001240479888E+00 -0.714418094226242E+00
  0.928987081162843E+00 -0.755425870895370E+00
  0.905673429714640E+00 -0.801415318070157E+00
  0.880899284553831E+00 -0.853231385491483E+00
  0.854475878111615E+00 -0.911898358101251E+00
  0.826180699703287E+00 -0.978664600259206E+00
  0.795750011012424E+00 -0.105505970288190E+01
  0.762869434568113E+00 -0.114296754883925E+01
  0.727162078146697E+00 -0.124471962052417E+01
  0.688173515958371E+00 -0.136321360268230E+01
  0.645352786811733E+00 -0.150206259853915E+01
  0.598028412816265E+00 -0.166577920260073E+01
  0.545378349051706E+00 -0.185999437401508E+01
  0.486392882587567E+00 -0.209169961592323E+01
  0.419830106098800E+00 -0.236947451640017E+01
  0.344165313149580E+00 -0.270360499154667E+01
  0.257539720863524E+00 -0.310588265631092E+01
  0.157722619008926E+00 -0.358865652541498E+01
  0.421183350081131E-01 -0.416232513260844E+01
 -0.921189902779378E-01 -0.482989003666266E+01
 -0.247749271905043E+00 -0.557666615129933E+01
 -0.426715106375820E+00 -0.635378294816454E+01
 -0.628829484198363E+00 -0.705840510769104E+01
 -0.849900144371297E+00 -0.752541670090264E+01
 -0.107998174653341E+01 -0.756122014867423E+01
 -0.130350210914816E+01 -0.704143948865233E+01
 -0.150308242838438E+01 -0.602183020552563E+01
 -0.166599912871186E+01 -0.473930465008981E+01
 -0.178849507274756E+01 -0.347273940507480E+01
 -0.187469241554799E+01 -0.240450414822599E+01
 -0.193238029898771E+01 -0.159210869314308E+01
 -0.196947979665216E+01 -0.101390289798026E+01
 -0.199244314885077E+01 -0.619140481647777E+00
 -0.200598359485181E+01 -0.356443064969457E+00
 -0.201334897948245E+01 -0.184305455113488E+00
 -0.201670585777012E+01 -0.725036392876047E-01
 -0.201747310310005E+01 -0.217794625044010E-03
 -0.201657026952914E+01  0.464469891720751E-01
 -0.201458987585630E+01  0.765943170802331E-01
 -0.201191258673872E+01  0.961248442468762E-01
 -0.200878265999821E+01  0.108840001317618E+00
 -0.200535679980273E+01  0.117181041333331E+00
 -0.200173558703596E+01  0.122713596259109E+00
 -0.199798363256161E+01  0.126441546715853E+00
 -0.199414248054893E+01  0.129008935110962E+00
 -0.199023886759956E+01  0.130829378501636E+00
 -0.198629001172012E+01  0.132168872847992E+00
 -0.198230700251452E+01  0.133198751675784E+00
 -0.197829697703817E+01  0.134029568946388E+00
 -0.197426451834342E+01  0.134732796452881E+00
 -0.197021255585193E+01  0.135354735055831E+00
 -0.196614294599034E+01  0.135925446715567E+00
 -0.196205684728734E+01  0.136464498626582E+00
 -0.195795496312078E+01  0.136984663466431E+00
 -0.195383769909350E+01  0.137494307196913E+00
 -0.194970526524219E+01  0.137998932706177E+00
 -0.194555774253237E+01  0.138502179558915E+00
 -0.194139512618999E+01  0.139006472698451E+00
 -0.193721735398151E+01  0.139513444162420E+00
 -0.193302432469479E+01  0.140024207763176E+00
 -0.192881591022808E+01  0.140539538348584E+00
 -0.192459196350121E+01  0.141059989025555E+00
 -0.192035232363061E+01  0.141585967975577E+00
 -0.191609681930856E+01  0.142117788901914E+00
 -0.191182527100103E+01  0.142655704238511E+00
 -0.190753749236651E+01  0.143199927068852E+00
 -0.190323329115943E+01  0.143750645637289E+00
 -0.189891246979185E+01  0.144308032991751E+00
 -0.189457482566705E+01  0.144872253421263E+00
 -0.189022015136066E+01  0.145443466780158E+00
 -0.188584823469854E+01  0.146021831417125E+00
 -0.188145885876458E+01  0.146607506182298E+00
 -0.187705180185976E+01  0.147200651824892E+00
 -0.187262683742713E+01  0.147801431988160E+00
 -0.186818373395185E+01  0.148410013938808E+00
 -0.186372225484285E+01  0.149026569122069E+00
 -0.185924215829992E+01  0.149651273603243E+00
 -0.185474319716898E+01  0.150284308436379E+00
 -0.185022511878726E+01  0.150925859987462E+00
 -0.184568766481924E+01  0.151576120230576E+00
 -0.184113057108409E+01  0.152235287029644E+00
 -0.183655356737478E+01  0.152903564414409E+00
 -0.183195637726899E+01  0.153581162856725E+00
 -0.182733871793164E+01  0.154268299551491E+00
 -0.182270029990893E+01  0.154965198705418E+00
 -0.181804082691361E+01  0.155672091836063E+00
 -0.181335999560105E+01  0.156389218083067E+00
 -0.180865749533585E+01  0.157116824533256E+00
 -0.180393300794840E+01  0.157855166561031E+00
 -0.179918620748104E+01  0.158604508185408E+00
 -0.179441675992329E+01  0.159365122445006E+00