 VARIABLES = "t", "u", "Error"
 ZONE DATAPACKING=POINT, I=        1001
  0.000000000000000E+000   1.00000000000000       0.000000000000000E+000
  4.000000000000000E-003  0.992031914837333       2.726707748479384E-013
  8.000000000000000E-003  0.984127320055826       5.410116798998388E-013
  1.200000000000000E-002  0.976285709758714       8.051337374581635E-013
  1.600000000000000E-002  0.968506582080263       1.064925925220450E-012
  2.000000000000000E-002  0.960789439153644       1.320610287791624E-012
  2.400000000000000E-002  0.953133787079077       1.572075802869222E-012
  2.800000000000000E-002  0.945539135892216       1.819433492755707E-012
  3.200000000000000E-002  0.938004999532792       2.062794379753541E-012
  3.600000000000000E-002  0.930530895813508       2.302158463862725E-012
  4.000000000000000E-002  0.923116346389173       2.537636767385720E-012
  4.400000000000000E-002  0.915760876726095       2.769118268020065E-012
  4.800000000000000E-002  0.908464016071703       2.996713988068223E-012
  5.200000000000000E-002  0.901225297424425       3.220534949832654E-012
  5.600000000000000E-002  0.894044257503798       3.440692175615823E-012
  6.000000000000000E-002  0.886920436720815       3.657074643115266E-012
  6.400000000000000E-002  0.879853379148514       3.869793374633446E-012
  6.800000000000000E-002  0.872842632492798       4.078848370170363E-012
  7.199999999999999E-002  0.865887748063489       4.284350652028479E-012
  7.600000000000000E-002  0.858988280745610       4.486300220207795E-012
  8.000000000000000E-002  0.852143788970896       4.684697074708311E-012
  8.400000000000001E-002  0.845353834689539       4.879763260134951E-012
  8.799999999999999E-002  0.838617983342145       5.071387754185253E-012
  9.200000000000000E-002  0.831935803831931       5.259681579161679E-012
  9.600000000000000E-002  0.825306868497127       5.444755757366693E-012
  0.100000000000000       0.818730753083608       5.626388244195368E-012
  0.104000000000000       0.812207036717744       5.804801084252631E-012
  0.108000000000000       0.805735301879460       5.980105299840943E-012
  0.112000000000000       0.799315134375517       6.152189868657842E-012
  0.116000000000000       0.792946123313005       6.321054790703329E-012
  0.120000000000000       0.786627861073040       6.486922110582327E-012
  0.124000000000000       0.780359943284684       6.649791828294838E-012
  0.128000000000000       0.774141968799058       6.809552921538398E-012
  0.132000000000000       0.767973539663673       6.966538457220395E-012
  0.136000000000000       0.761854261096958       7.120415368433441E-012
  0.140000000000000       0.755783741462997       7.271405699782463E-012
  0.144000000000000       0.749761592246461       7.419620473569921E-012
  0.148000000000000       0.743787428027745       7.564948667493354E-012
  0.152000000000000       0.737860866458299       7.707501303855224E-012
  0.156000000000000       0.731981528236160       7.847278382655531E-012
  0.160000000000000       0.726149037081675       7.984390926196738E-012
  0.164000000000000       0.720363019713420       8.118727912176382E-012
  0.168000000000000       0.714623105824308       8.250622407501851E-012
  0.172000000000000       0.708928928057890       8.379630322963294E-012
  0.176000000000000       0.703280121984847       8.506195747770562E-012
  0.180000000000000       0.697676326079661       8.630207659621192E-012
  0.184000000000000       0.692117181697482       8.751666058515184E-012
  0.188000000000000       0.686602333051172       8.870681966755001E-012
  0.192000000000000       0.681131427188534       8.987255384340642E-012
  0.196000000000000       0.675704113969727       9.101386311272108E-012
  0.200000000000000       0.670320046044852       9.213074747549399E-012
  0.204000000000000       0.664978878831724       9.322542737777439E-012
  0.208000000000000       0.659680270493819       9.429679259653767E-012
  0.212000000000000       0.654423881918393       9.534373290875919E-012
  0.216000000000000       0.649209376694784       9.636846876048821E-012
  0.220000000000000       0.644036421092879       9.737100015172473E-012
  0.224000000000000       0.638904684041751       9.835132708246874E-012
  0.228000000000000       0.633813837108480       9.931055977574488E-012
  0.232000000000000       0.628763554477123       1.002475880085285E-011
  0.236000000000000       0.623753512927869       1.011635220038443E-011
  0.240000000000000       0.618783391816347       1.020594719847168E-011
  0.244000000000000       0.613852873053110       1.029332175050968E-011
  0.248000000000000       0.608961641083276       1.037880892340581E-011
  0.252000000000000       0.604109382866327       1.046218667255516E-011
  0.256000000000000       0.599295787856082       1.054356602026019E-011
  0.260000000000000       0.594520547980817       1.062283594421842E-011
  0.264000000000000       0.589783357623551       1.070044053363972E-011
  0.268000000000000       0.585083913602483       1.077604672161669E-011
  0.272000000000000       0.580421915151592       1.084965450814934E-011
  0.276000000000000       0.575797063901386       1.092159696014505E-011
  0.280000000000000       0.571209063859806       1.099154101069644E-011
  0.284000000000000       0.566657621393284       1.105981972671088E-011
  0.288000000000000       0.562142445207949       1.112621106358347E-011
  0.292000000000000       0.557663246330982       1.119082604361665E-011
  0.296000000000000       0.553219738092128       1.125377568911290E-011
  0.300000000000000       0.548811636105341       1.131494897776975E-011
  0.304000000000000       0.544438658250592       1.137456795419212E-011
  0.308000000000000       0.540100524655803       1.143229955147262E-011
  0.312000000000000       0.535796957678945       1.148847683651866E-011
  0.316000000000000       0.531527681890261       1.154309980933022E-011
  0.320000000000000       0.527292424054645       1.159605744760484E-011
  0.324000000000000       0.523090913114148       1.164746077364498E-011
  0.328000000000000       0.518922880170638       1.169719876514819E-011
  0.332000000000000       0.514788058468582       1.174549346671938E-011
  0.336000000000000       0.510686183377980       1.179234487835856E-011
  0.340000000000000       0.506616992377427       1.183775300006573E-011
  0.344000000000000       0.502580225037310       1.188149578723596E-011
  0.348000000000000       0.498575623003140       1.192390630677664E-011
  0.352000000000000       0.494602929979022       1.196481802523408E-011
  0.356000000000000       0.490661891711245       1.200439747606197E-011
  0.360000000000000       0.486752255972014       1.204253363695784E-011
  0.364000000000000       0.482873772543309       1.207933753022417E-011
  0.368000000000000       0.479026193200866       1.211475364470971E-011
  0.372000000000000       0.475209271698293       1.214889300271693E-011
  0.376000000000000       0.471422763751313       1.218164458194337E-011
  0.380000000000000       0.467666427022122       1.221317491584273E-011
  0.384000000000000       0.463940021103890       1.224337298211253E-011
  0.388000000000000       0.460243307505365       1.227234980305525E-011
  0.392000000000000       0.456576049635615       1.230004986751965E-011
  0.396000000000000       0.452938012788884       1.232652868665696E-011
  0.400000000000000       0.449328964129573       1.235184177161841E-011
  0.404000000000000       0.445748672677336       1.237593361125278E-011
  0.408000000000000       0.442196909292298       1.239885971671129E-011
  0.412000000000000       0.438673446660389       1.242067559914517E-011
  0.416000000000000       0.435178059278798       1.244132574740320E-011
  0.420000000000000       0.431710523441541       1.246086567263660E-011
  0.424000000000000       0.428270617225139       1.247929537484538E-011
  0.428000000000000       0.424858120474421       1.249667036518076E-011
  0.432000000000000       0.421472814788431       1.251293513249152E-011
  0.436000000000000       0.418114483506448       1.252820069908012E-011
  0.440000000000000       0.414782911694124       1.254241155379532E-011
  0.444000000000000       0.411477886129726       1.255556769663713E-011
  0.448000000000000       0.408199195290490       1.256772463875677E-011
  0.452000000000000       0.404946629339084       1.257893789130549E-011
  0.456000000000000       0.401719980110175       1.258915194313204E-011
  0.460000000000000       0.398519041097113       1.259842230538766E-011
  0.464000000000000       0.395343607438707       1.260669346692112E-011
  0.468000000000000       0.392193475906119       1.261407645003487E-011
  0.472000000000000       0.389068444889857       1.262051574357770E-011
  0.476000000000000       0.385968314386868       1.262601134754959E-011
  0.480000000000000       0.382892885987743       1.263067428425302E-011
  0.484000000000000       0.379841962864013       1.263444904253674E-011
  0.488000000000000       0.376815349755558       1.263739113355200E-011
  0.492000000000000       0.373812852958106       1.263944504614756E-011
  0.496000000000000       0.370834280310836       1.264072180262588E-011
  0.500000000000000       0.367879441184083       1.264111038068449E-011
  0.504000000000000       0.364948146467134       1.264066629147464E-011
  0.508000000000000       0.362040208556127       1.263950055729879E-011
  0.512000000000000       0.359155441342042       1.263755766700569E-011
  0.516000000000000       0.356293660198794       1.263478210944413E-011
  0.520000000000000       0.353454681971411       1.263122939576533E-011
  0.524000000000000       0.350638324964320       1.262695503712052E-011
  0.528000000000000       0.347844408929709       1.262201454466094E-011
  0.532000000000000       0.345072755056000       1.261629689608412E-011
  0.536000000000000       0.342323185956398       1.260985760254130E-011
  0.540000000000000       0.339595525657542       1.260275217518370E-011
  0.544000000000000       0.336889599588242       1.259492510286009E-011
  0.548000000000000       0.334205234568306       1.258643189672171E-011
  0.552000000000000       0.331542258797457       1.257727255676855E-011
  0.556000000000000       0.328900501844336       1.256744708300062E-011
  0.560000000000000       0.326279794635596       1.255701098656914E-011
  0.564000000000000       0.323679969445083       1.254590875632289E-011
  0.568000000000000       0.321100859883095       1.253425141456432E-011
  0.572000000000000       0.318542300885741       1.252192793899098E-011
  0.576000000000000       0.316004128704372       1.250899384075410E-011
  0.580000000000000       0.313486180895101       1.249550463100491E-011
  0.584000000000000       0.310988296308410       1.248140479859217E-011
  0.588000000000000       0.308510315078831       1.246674985466711E-011
  0.592000000000000       0.306052078614722       1.245153979922975E-011
  0.596000000000000       0.303613429588109       1.243577463228007E-011
  0.600000000000000       0.301194211924622       1.241945435381808E-011
  0.604000000000000       0.298794270793504       1.240268998614624E-011
  0.608000000000000       0.296413452597704       1.238531499581086E-011
  0.612000000000000       0.294051604964046       1.236749591626563E-011
  0.616000000000000       0.291708576733474       1.234917723635931E-011
  0.620000000000000       0.289384217951381       1.233035895609191E-011
  0.624000000000000       0.287078379858013       1.231098556431220E-011
  0.628000000000000       0.284790914878944       1.229116808332265E-011
  0.632000000000000       0.282521676615634       1.227090651312324E-011
  0.636000000000000       0.280270519836062       1.225014534256275E-011
  0.640000000000000       0.278037300465423       1.222899559394364E-011
  0.644000000000000       0.275821875576917       1.220734624496345E-011
  0.648000000000000       0.273624103382593       1.218530831792464E-011
  0.652000000000000       0.271443843224283       1.216282630167598E-011
  0.656000000000000       0.269280955564590       1.213995570736870E-011
  0.660000000000000       0.267135301977967       1.211669653500280E-011
  0.664000000000000       0.265006745141852       1.209299327342706E-011
  0.668000000000000       0.262895148827881       1.206884592264146E-011
  0.672000000000000       0.260800377893168       1.204436550494847E-011
  0.676000000000000       0.258722298271660       1.201955202034810E-011
  0.680000000000000       0.256660776965550       1.199429444653788E-011
  0.684000000000000       0.254615682036772       1.196875931697150E-011
  0.688000000000000       0.252586882598553       1.194278009819527E-011
  0.692000000000000       0.250574248807035       1.191646781251166E-011
  0.696000000000000       0.248577651852970       1.188987797107188E-011
  0.700000000000000       0.246596963953469       1.186292730714911E-011
  0.704000000000000       0.244632058343833       1.183564357631894E-011
  0.708000000000000       0.242682809269431       1.180805453415701E-011
  0.712000000000000       0.240749091977657       1.178013242508769E-011
  0.716000000000000       0.238830782709944       1.175193276026221E-011
  0.720000000000000       0.236927758693845       1.172342778410496E-011
  0.724000000000000       0.235039898135173       1.169461749661593E-011
  0.728000000000000       0.233167080210207       1.166555740894637E-011
  0.732000000000000       0.231309185057962       1.163616425436942E-011
  0.736000000000000       0.229466093772513       1.160652129961193E-011
  0.740000000000000       0.227637688395389       1.157662854467389E-011
  0.744000000000000       0.225823851908022       1.154645823397971E-011
  0.748000000000000       0.224024468224258       1.151601036752936E-011
  0.752000000000000       0.222239422182926       1.148534045647409E-011
  0.756000000000000       0.220468599540470       1.145444850081390E-011
  0.760000000000000       0.218711886963638       1.142330674497316E-011
  0.764000000000000       0.216969172022224       1.139191518895188E-011
  0.768000000000000       0.215240343181878       1.136032934390130E-011
  0.772000000000000       0.213525289796963       1.132849369867017E-011
  0.776000000000000       0.211823902103478       1.129643600883412E-011
  0.780000000000000       0.210136071212029       1.126418402996876E-011
  0.784000000000000       0.208461689100863       1.123173776207409E-011
  0.788000000000000       0.206800648608954       1.119909720515011E-011
  0.792000000000000       0.205152843429143       1.116623460362121E-011
  0.796000000000000       0.203518168101337       1.113320546863861E-011
  0.800000000000000       0.201896518005755       1.110000980020232E-011
  0.804000000000000       0.200287789356240       1.106661984273671E-011
  0.808000000000000       0.198691879193607       1.103303559624180E-011
  0.812000000000000       0.197108685379062       1.099931257186881E-011
  0.816000000000000       0.195538106587660       1.096542301404213E-011
  0.820000000000000       0.193980042301823       1.093136692276175E-011
  0.824000000000000       0.192434392804905       1.089717205360330E-011
  0.828000000000000       0.190901059174809       1.086281065099115E-011
  0.832000000000000       0.189379943277661       1.082831047050092E-011
  0.836000000000000       0.187870947761524       1.079367151213262E-011
  0.840000000000000       0.186373976050169       1.075892153146185E-011
  0.844000000000000       0.184888932336896       1.072400501733739E-011
  0.848000000000000       0.183415721578401       1.068897748091047E-011
  0.852000000000000       0.181954249488693       1.065383892218108E-011
  0.856000000000000       0.180504422533058       1.061856158557362E-011
  0.860000000000000       0.179066147922076       1.058320098223930E-011
  0.864000000000000       0.177639333605683       1.054770160102692E-011
  0.868000000000000       0.176223888267273       1.051211895308768E-011
  0.872000000000000       0.174819721317863       1.047639752727036E-011
  0.876000000000000       0.173426742890289       1.044059283472620E-011
  0.880000000000000       0.172044863833455       1.040470487545520E-011
  0.884000000000000       0.170673995706631       1.036873364945734E-011
  0.888000000000000       0.169314050773788       1.033265140115702E-011
  0.892000000000000       0.167964941997986       1.029648588612986E-011
  0.896000000000000       0.166626583035804       1.026026485995146E-011
  0.900000000000000       0.165298888231810       1.022393281147060E-011
  0.904000000000000       0.163981772613085       1.018754525183851E-011
  0.908000000000000       0.162675151883779       1.015110218105519E-011
  0.912000000000000       0.161378942419719       1.011454808796941E-011
  0.916000000000000       0.160093061263058       1.007799399488363E-011
  0.920000000000000       0.158817426116962       1.004135663507100E-011
  0.924000000000000       0.157551955340347       1.000463600853152E-011
  0.928000000000000       0.156296567942650       9.967887626416427E-012
  0.932000000000000       0.155051183578650       9.931111488725719E-012
  0.936000000000000       0.153815722543324       9.894252084308164E-012
  0.940000000000000       0.152590105766741       9.857337168739377E-012
  0.944000000000000       0.151374254809012       9.820394497594975E-012
  0.948000000000000       0.150168091855258       9.783424070874958E-012
  0.952000000000000       0.148971539710640       9.746425888579324E-012
  0.956000000000000       0.147784521795412       9.709399950708075E-012
  0.960000000000000       0.146606962140022       9.672318501685595E-012
  0.964000000000000       0.145438785380251       9.635237052663115E-012
  0.968000000000000       0.144279916752386       9.598127848065019E-012
  0.972000000000000       0.143130282088441       9.561018643466923E-012
  0.976000000000000       0.141989807811404       9.523853927717596E-012
  0.980000000000000       0.140858420930532       9.486689211968269E-012
  0.984000000000000       0.139736049036678       9.449524496218942E-012
  0.988000000000000       0.138622620297660       9.412332024893999E-012
  0.992000000000000       0.137518063453656       9.375139553569056E-012
  0.996000000000000       0.136422307812652       9.337919326668498E-012
   1.00000000000000       0.135335283245913       9.300726855343555E-012
   1.00400000000000       0.134256920183496       9.263534384018612E-012
   1.00800000000000       0.133187149609797       9.226341912693670E-012
   1.01200000000000       0.132125903059133       9.189149441368727E-012
   1.01600000000000       0.131073112611364       9.151956970043784E-012
   1.02000000000000       0.130028710887541       9.114792254294457E-012
   1.02400000000000       0.128992631045597       9.077627538545130E-012
   1.02800000000000       0.127964806776069       9.040462822795803E-012
   1.03200000000000       0.126945172297853       9.003325862622091E-012
   1.03600000000000       0.125933662353995       8.966216658023995E-012
   1.04000000000000       0.124930212207512       8.929121331213707E-012
   1.04400000000000       0.123934757637252       8.892039882191227E-012
   1.04800000000000       0.122947234933784       8.854986188744363E-012
   1.05200000000000       0.121967580895317       8.817946373085306E-012
   1.05600000000000       0.120995732823659       8.780948190789672E-012
   1.06000000000000       0.120031628520201       8.743963886281847E-012
   1.06400000000000       0.119075206281938       8.707021215137445E-012
   1.06800000000000       0.118126404897522       8.670120177356466E-012
   1.07200000000000       0.117185163643338       8.633246895151103E-012
   1.07600000000000       0.116251422279627       8.596415246309164E-012
   1.08000000000000       0.115325121046622       8.559611353042840E-012
   1.08400000000000       0.114406200660728       8.522862970927747E-012
   1.08800000000000       0.113494602310726       8.486156222176078E-012
   1.09200000000000       0.112590267654011       8.449477229000024E-012
   1.09600000000000       0.111693138812857       8.412853746975202E-012
   1.10000000000000       0.110803158370710       8.376271898313803E-012
   1.10400000000000       0.109920269368520       8.339759438591443E-012
   1.10800000000000       0.109044415301088       8.303274734444699E-012
   1.11200000000000       0.108175540113456       8.266859419236994E-012
   1.11600000000000       0.107313588197315       8.230485737392712E-012
   1.12000000000000       0.106458504387447       8.194167566699662E-012
   1.12400000000000       0.105610233958198       8.157918784945650E-012
   1.12800000000000       0.104768722619970       8.121711636555062E-012
   1.13200000000000       0.103933916515750       8.085573877103513E-012
   1.13600000000000       0.103105762217663       8.049491628803196E-012
   1.14000000000000       0.102284206723551       8.013464891654110E-012
   1.14400000000000       0.101469197453582       7.977507543444062E-012
   1.14800000000000       0.100660682246884       7.941605706385246E-012
   1.15200000000000       9.985860935820901E-002  7.905787136053277E-012
   1.15600000000000       9.906292745461734E-002  7.870024076872539E-012
   1.16000000000000       9.827358561219587E-002  7.834330406630841E-012
   1.16400000000000       9.749053331279728E-002  7.798692247540373E-012
   1.16800000000000       9.671372044080712E-002  7.763137355176752E-012
   1.17200000000000       9.594309727993643E-002  7.727651851752171E-012
   1.17600000000000       9.517861451003988E-002  7.692249615054436E-012
   1.18000000000000       9.442022320395926E-002  7.656916767295741E-012
   1.18400000000000       9.366787482439212E-002  7.621653308476084E-012
   1.18800000000000       9.292152122078537E-002  7.586473116383274E-012
   1.19200000000000       9.218111462625361E-002  7.551362313229504E-012
   1.19600000000000       9.144660765452209E-002  7.516334776802580E-012
   1.20000000000000       9.071795329689389E-002  7.481376629314695E-012
   1.20400000000000       8.999510491924143E-002  7.446515626341466E-012
   1.20800000000000       8.927801625902179E-002  7.411724012307275E-012
   1.21200000000000       8.856664142231596E-002  7.377001787212123E-012
   1.21600000000000       8.786093488089158E-002  7.342376706631626E-012
   1.22000000000000       8.716085146928913E-002  7.307834892777976E-012
   1.22400000000000       8.646634638193129E-002  7.273376345651172E-012
   1.22800000000000       8.577737517025542E-002  7.238987187463408E-012
   1.23200000000000       8.509389373986882E-002  7.204709051578106E-012
   1.23600000000000       8.441585834772664E-002  7.170500304631844E-012
   1.24000000000000       8.374322559933234E-002  7.136374824412428E-012
   1.24400000000000       8.307595244596044E-002  7.102346488707667E-012
   1.24800000000000       8.241399618190139E-002  7.068415297517561E-012
   1.25200000000000       8.175731444172830E-002  7.034553495266493E-012
   1.25600000000000       8.110586519758570E-002  7.000802715317889E-012
   1.26000000000000       8.045960675649957E-002  6.967135202096131E-012
   1.26400000000000       7.981849775770912E-002  6.933578711176835E-012
   1.26800000000000       7.918249717001957E-002  6.900091609196579E-012
   1.27200000000000       7.855156428917624E-002  6.866701651730978E-012
   1.27600000000000       7.792565873525940E-002  6.833408838780031E-012
   1.28000000000000       7.730474045009995E-002  6.800213170343739E-012
   1.28400000000000       7.668876969471572E-002  6.767114646422101E-012
   1.28800000000000       7.607770704676810E-002  6.734113267015118E-012
   1.29200000000000       7.547151339803904E-002  6.701195154334982E-012
   1.29600000000000       7.487014995192812E-002  6.668374186169501E-012
   1.30000000000000       7.427357822096953E-002  6.635650362518675E-012
   1.30400000000000       7.368176002436885E-002  6.603023683382503E-012
   1.30800000000000       7.309465748555952E-002  6.570508026548794E-012
   1.31200000000000       7.251223302977863E-002  6.538103392017547E-012
   1.31600000000000       7.193444938166223E-002  6.505782024213147E-012
   1.32000000000000       7.136126956285961E-002  6.473557800923402E-012
   1.32400000000000       7.079265688966674E-002  6.441444599936119E-012
   1.32800000000000       7.022857497067843E-002  6.409414665675683E-012
   1.33200000000000       6.966898770445934E-002  6.377495753717710E-012
   1.33600000000000       6.911385927723343E-002  6.345687864062199E-012
   1.34000000000000       6.856315416059187E-002  6.313963241133536E-012
   1.34400000000000       6.801683710921923E-002  6.282349640507334E-012
   1.34800000000000       6.747487315863775E-002  6.250847062183595E-012
   1.35200000000000       6.693722762296959E-002  6.219441628374511E-012
   1.35600000000000       6.640386609271696E-002  6.188133339080082E-012
   1.36000000000000       6.587475443255988E-002  6.156936072088115E-012
   1.36400000000000       6.534985877917149E-002  6.125835949610803E-012
   1.36800000000000       6.482914553905081E-002  6.094846849435953E-012
   1.37200000000000       6.431258138637273E-002  6.063954893775758E-012
   1.37600000000000       6.380013326085521E-002  6.033173960418026E-012
   1.38000000000000       6.329176836564324E-002  6.002504049362756E-012
   1.38400000000000       6.278745416521002E-002  5.971931282822140E-012
   1.38800000000000       6.228715838327459E-002  5.941469538583988E-012
   1.39200000000000       6.179084900073616E-002  5.911111877754394E-012
   1.39600000000000       6.129849425362481E-002  5.880858300333358E-012
   1.40000000000000       6.081006263106870E-002  5.850722684108689E-012
   1.40400000000000       6.032552287327725E-002  5.820684212398675E-012
   1.40800000000000       5.984484396954058E-002  5.790756762991123E-012
   1.41200000000000       5.936799515624478E-002  5.760933396992129E-012
   1.41600000000000       5.889494591490304E-002  5.731221053295599E-012
   1.42000000000000       5.842566597020244E-002  5.701612793007627E-012
   1.42400000000000       5.796012528806635E-002  5.672115555022117E-012
   1.42800000000000       5.749829407373221E-002  5.642722400445166E-012
   1.43200000000000       5.704014276984466E-002  5.613440268170677E-012
   1.43600000000000       5.658564205456387E-002  5.584262219304748E-012
   1.44000000000000       5.613476283968893E-002  5.555202131635184E-012
   1.44400000000000       5.568747626879619E-002  5.526239188480275E-012
   1.44800000000000       5.524375371539244E-002  5.497394206521733E-012
   1.45200000000000       5.480356678108281E-002  5.468653307971749E-012
   1.45600000000000       5.436688729375325E-002  5.440023431724228E-012
   1.46000000000000       5.393368730576752E-002  5.411497638885265E-012
   1.46400000000000       5.350393909217853E-002  5.383089807242669E-012
   1.46800000000000       5.307761514895392E-002  5.354786059008632E-012
   1.47200000000000       5.265468819121581E-002  5.326600271970960E-012
   1.47600000000000       5.223513115149454E-002  5.298511629447944E-012
   1.48000000000000       5.181891717799637E-002  5.270540948121294E-012
   1.48400000000000       5.140601963288493E-002  5.242674350203202E-012
   1.48800000000000       5.099641209057638E-002  5.214918774587574E-012
   1.49200000000000       5.059006833604823E-002  5.187267282380503E-012
   1.49600000000000       5.018696236316147E-002  5.159733751369799E-012
   1.50000000000000       4.978706837299625E-002  5.132304303767654E-012
   1.50400000000000       4.939036077220071E-002  5.104992817361875E-012
   1.50800000000000       4.899681417135298E-002  5.077778475470751E-012
   1.51200000000000       4.860640338333629E-002  5.050682094775993E-012
   1.51600000000000       4.821910342172693E-002  5.023689797489794E-012
   1.52000000000000       4.783488949919518E-002  4.996808522506058E-012
   1.52400000000000       4.745373702591884E-002  4.970038269824784E-012
   1.52800000000000       4.707562160800953E-002  4.943379039445972E-012
   1.53200000000000       4.670051904595144E-002  4.916830831369623E-012
   1.53600000000000       4.632840533305256E-002  4.890386706701833E-012
   1.54000000000000       4.595925665390826E-002  4.864053604336505E-012
   1.54400000000000       4.559304938287706E-002  4.837824585379735E-012
   1.54800000000000       4.522976008256863E-002  4.811706588725428E-012
   1.55200000000000       4.486936550234374E-002  4.785706553267488E-012
   1.55600000000000       4.451184257682624E-002  4.759803662324202E-012
   1.56000000000000       4.415716842442688E-002  4.734018732577283E-012
   1.56400000000000       4.380532034587883E-002  4.708337886238922E-012
   1.56800000000000       4.345627582278497E-002  4.682761123309120E-012
   1.57200000000000       4.311001251617669E-002  4.657302321575685E-012
   1.57600000000000       4.276650826508416E-002  4.631947603250808E-012
   1.58000000000000       4.242574108511809E-002  4.606703907228393E-012
   1.58400000000000       4.208768916706263E-002  4.581571233508441E-012
   1.58800000000000       4.175233087547962E-002  4.556542643197048E-012
   1.59200000000000       4.141964474732397E-002  4.531618136294213E-012
   1.59600000000000       4.108960949056989E-002  4.506811590587745E-012
   1.60000000000000       4.076220398284831E-002  4.482102189395931E-012
   1.60400000000000       4.043740727009499E-002  4.457510749400484E-012
   1.60800000000000       4.011519856520944E-002  4.433023392813595E-012
   1.61200000000000       3.979555724672457E-002  4.408640119635265E-012
   1.61600000000000       3.947846285748689E-002  4.384360929865494E-012
   1.62000000000000       3.916389510334726E-002  4.360192762398185E-012
   1.62400000000000       3.885183385186204E-002  4.336128678339435E-012
   1.62800000000000       3.854225913100465E-002  4.312175616583147E-012
   1.63200000000000       3.823515112788724E-002  4.288326638235418E-012