 VARIABLES =  $x$  $\epsilon=10^{-1}$  $x$2  $\epsilon=10^{-2}$  $x$3  $\epsilon=10^{-3}$
 ZONE I=        1001 ,DATAPACKING=POINT
  0.994000000000000E+00  0.000000000000000E+00  0.994000000000000E+00  0.000000000000000E+00  0.994000000000000E+00  0.000000000000000E+00
  0.979980985627391E+00 -0.196990452373851E-01  0.979980985627391E+00 -0.196990452373851E-01  0.979257235625160E+00 -0.193905339588246E-01
  0.965712655275681E+00 -0.278395907361604E-01  0.965712655275681E+00 -0.278395907361604E-01  0.964467248246829E+00 -0.272224728317449E-01
  0.953020040595112E+00 -0.330313977767405E-01  0.953020040595112E+00 -0.330313977767405E-01  0.951323981348807E+00 -0.321953969797592E-01
  0.941300766900611E+00 -0.366794876218891E-01  0.941300766900611E+00 -0.366794876218891E-01  0.939167041045376E+00 -0.356815309017063E-01
  0.930246478877938E+00 -0.392872678037061E-01  0.930246478877938E+00 -0.392872678037061E-01  0.927670632991163E+00 -0.381631089788690E-01
  0.919679728070021E+00 -0.411006874588514E-01  0.919679728070021E+00 -0.411006874588514E-01  0.916650406994475E+00 -0.398728280502045E-01
  0.909487610102529E+00 -0.422612246538009E-01  0.909487610102529E+00 -0.422612246538009E-01  0.905990332264243E+00 -0.409432164858407E-01
  0.899592870066235E+00 -0.428589846996430E-01  0.899592870066235E+00 -0.428589846996430E-01  0.895611651006633E+00 -0.414579239158323E-01
  0.889939682344350E+00 -0.429554858565398E-01  0.889939682344350E+00 -0.429554858565398E-01  0.885457816076665E+00 -0.414735643272688E-01
  0.880485942134633E+00 -0.425948935490998E-01  0.880485942134633E+00 -0.425948935490998E-01  0.875486403907258E+00 -0.410304228306003E-01
  0.871198763108166E+00 -0.418101355138388E-01  0.871198763108166E+00 -0.418101355138388E-01  0.865664423826308E+00 -0.401582564584305E-01
  0.862051688438955E+00 -0.406264882398357E-01  0.862051688438955E+00 -0.406264882398357E-01  0.855965427568704E+00 -0.388796832428107E-01
  0.853022879197864E+00 -0.390638071109359E-01  0.853022879197864E+00 -0.390638071109359E-01  0.846367639048765E+00 -0.372122830637914E-01
  0.844093890567468E+00 -0.371379804553322E-01  0.844093890567468E+00 -0.371379804553322E-01  0.836852694468339E+00 -0.351699640250901E-01
  0.835248817377483E+00 -0.348619157009488E-01  0.835248817377483E+00 -0.348619157009488E-01  0.827404764119219E+00 -0.327638874895956E-01
  0.826473680329054E+00 -0.322462310667627E-01  0.826473680329054E+00 -0.322462310667627E-01  0.818009921908623E+00 -0.300031162361260E-01
  0.817755974024868E+00 -0.292997551822851E-01  0.817755974024868E+00 -0.292997551822851E-01  0.808655680779341E+00 -0.268950825875072E-01
  0.809084326710434E+00 -0.260298975969270E-01  0.809084326710434E+00 -0.260298975969270E-01  0.799330642241453E+00 -0.234459359382124E-01
  0.800448238939054E+00 -0.224429302744056E-01  0.800448238939054E+00 -0.224429302744056E-01  0.790024226229519E+00 -0.196608074654358E-01
  0.791837879129668E+00 -0.185442063979103E-01  0.791837879129668E+00 -0.185442063979103E-01  0.780726458649414E+00 -0.155440168069981E-01
  0.783243920870820E+00 -0.143383342447897E-01  0.783243920870820E+00 -0.143383342447897E-01  0.771427801096225E+00 -0.110992374213555E-01
  0.774657411346491E+00 -0.982931840454463E-02  0.774657411346491E+00 -0.982931840454463E-02  0.762119011890339E+00 -0.632963219301482E-02
  0.766069663301769E+00 -0.502067701227603E-02  0.766069663301769E+00 -0.502067701227603E-02  0.752791030712944E+00 -0.123796747349251E-02
  0.757472165057910E+00  0.844587489245186E-04  0.757472165057910E+00  0.844587489245186E-04  0.743434881275858E+00  0.417328850971900E-02
  0.748856504554281E+00  0.548325828032261E-02  0.748856504554281E+00  0.548325828032261E-02  0.734041587973367E+00  0.990187848444142E-02
  0.740214304445562E+00  0.111731148944414E-01  0.740214304445562E+00  0.111731148944414E-01  0.724602103550071E+00  0.159456768834021E-01
  0.731537166050097E+00  0.171515762163422E-01  0.731537166050097E+00  0.171515762163422E-01  0.715107245616953E+00  0.223026159446564E-01
  0.722816620517391E+00  0.234162796297717E-01  0.722816620517391E+00  0.234162796297717E-01  0.705547640449353E+00  0.289706151353948E-01
  0.714044086018751E+00  0.299648911705772E-01  0.714044086018751E+00  0.299648911705772E-01  0.695913672966741E+00  0.359475122641083E-01
  0.705210830105268E+00  0.367950465906478E-01  0.705210830105268E+00  0.367950465906478E-01  0.686195442167282E+00  0.432309949363269E-01
  0.696307936649909E+00  0.439042935583134E-01  0.696307936649909E+00  0.439042935583134E-01  0.676382721599689E+00  0.508185312289227E-01
  0.687326277015100E+00  0.512900341488506E-01  0.687326277015100E+00  0.512900341488506E-01  0.666464924721620E+00  0.587072986301786E-01
  0.678256485277929E+00  0.589494669283130E-01  0.678256485277929E+00  0.589494669283130E-01  0.656431075232999E+00  0.668941104346564E-01
  0.669088937512082E+00  0.668795280578750E-01  0.669088937512082E+00  0.668795280578750E-01  0.646269782694903E+00  0.753753389069348E-01
  0.659813735275934E+00  0.750768309539838E-01  0.659813735275934E+00  0.750768309539838E-01  0.635969223957789E+00  0.841468346478916E-01
  0.650420693595024E+00  0.835376041396555E-01  0.650420693595024E+00  0.835376041396555E-01  0.625517131132113E+00  0.932038417214191E-01
  0.640899333857694E+00  0.922576270208391E-01  0.640899333857694E+00  0.922576270208391E-01  0.614900787042679E+00  0.102540908237757E+00
  0.631238882166922E+00  0.101232163424629E+00  0.631238882166922E+00  0.101232163424629E+00  0.604107029316418E+00  0.112151792251174E+00
  0.621428273810002E+00  0.110455892848478E+00  0.621428273810002E+00  0.110455892848478E+00  0.593122264460284E+00  0.122029363023777E+00
  0.611456164620027E+00  0.119922839496255E+00  0.611456164620027E+00  0.119922839496255E+00  0.581932493487689E+00  0.132165497942999E+00
  0.601310950107276E+00  0.129626299322470E+00  0.601310950107276E+00  0.129626299322470E+00  0.570523350841775E+00  0.142550975667016E+00
  0.590980793331284E+00  0.139558765474356E+00  0.590980793331284E+00  0.139558765474356E+00  0.558880158531440E+00  0.153175366418576E+00
  0.580453662560771E+00  0.149711852716240E+00  0.580453662560771E+00  0.149711852716240E+00  0.546987997527527E+00  0.164026920761011E+00
  0.569717379822446E+00  0.160076221644522E+00  0.569717379822446E+00  0.160076221644522E+00  0.534831798543294E+00  0.175092458675914E+00
  0.558759681462712E+00  0.170641503756080E+00  0.558759681462712E+00  0.170641503756080E+00  0.522396454321971E+00  0.186357261321885E+00
  0.547568291828826E+00  0.181396228717879E+00  0.547568291828826E+00  0.181396228717879E+00  0.509666955446777E+00  0.197804968484301E+00
  0.536131011106492E+00  0.192327755498614E+00  0.536131011106492E+00  0.192327755498614E+00  0.496628551442762E+00  0.209417485416348E+00
  0.524435818216382E+00  0.203422209358649E+00  0.524435818216382E+00  0.203422209358649E+00  0.483266938519596E+00  0.221174903500295E+00
  0.512470989458924E+00  0.214664427043241E+00  0.512470989458924E+00  0.214664427043241E+00  0.469568474673548E+00  0.233055439891429E+00
  0.500225233291152E+00  0.226037912871867E+00  0.500225233291152E+00  0.226037912871867E+00  0.455520421991501E+00  0.245035401996216E+00
  0.487687841208742E+00  0.237524808744180E+00  0.487687841208742E+00  0.237524808744180E+00  0.441111214854043E+00  0.257089183215057E+00
  0.474848854181003E+00  0.249105881365479E+00  0.474848854181003E+00  0.249105881365479E+00  0.426330751307014E+00  0.269189296765262E+00
  0.461699243441549E+00  0.260760530200427E+00  0.461699243441549E+00  0.260760530200427E+00  0.411170703172843E+00  0.281306454493181E+00
  0.448231103675394E+00  0.272466819756697E+00  0.448231103675394E+00  0.272466819756697E+00  0.395624838547293E+00  0.293409697277285E+00
  0.434437855776921E+00  0.284201539739828E+00  0.434437855776921E+00  0.284201539739828E+00  0.379689348256842E+00  0.305466582807779E+00
  0.420314455408232E+00  0.295940296365262E+00  0.420314455408232E+00  0.295940296365262E+00  0.363363165765619E+00  0.317443435107780E+00
  0.405857602604146E+00  0.307657637624023E+00  0.405857602604146E+00  0.307657637624023E+00  0.346648268094676E+00  0.329305658073355E+00
  0.391065946705360E+00  0.319327214543264E+00  0.391065946705360E+00  0.319327214543264E+00  0.329549943768074E+00  0.341018112544935E+00
  0.375940280027180E+00  0.330921979443986E+00  0.375940280027180E+00  0.330921979443986E+00  0.312077012873208E+00  0.352545553045489E+00
  0.360483712973045E+00  0.342414420877882E+00  0.360483712973045E+00  0.342414420877882E+00  0.294241984260658E+00  0.363853116486592E+00
  0.344701822872247E+00  0.353776833352217E+00  0.344701822872247E+00  0.353776833352217E+00  0.276061135919466E+00  0.374906851104886E+00
  0.328602768751360E+00  0.364981618185782E+00  0.328602768751360E+00  0.364981618185782E+00  0.257554506778573E+00  0.385674269989589E+00
  0.312197364618447E+00  0.376001609972863E+00  0.312197364618447E+00  0.376001609972863E+00  0.238745791618566E+00  0.396124910199378E+00
  0.295499104703058E+00  0.386810421289112E+00  0.295499104703058E+00  0.386810421289112E+00  0.219662135297984E+00  0.406230876062088E+00
  0.278524135471645E+00  0.397382796599405E+00  0.278524135471645E+00  0.397382796599405E+00  0.200333827816308E+00  0.415967344176258E+00
  0.261291171098368E+00  0.407694964979904E+00  0.261291171098368E+00  0.407694964979904E+00  0.180793907422083E+00  0.425313008153128E+00
  0.243821351334208E+00  0.417724980394655E+00  0.243821351334208E+00  0.417724980394655E+00  0.161077684504746E+00  0.434250443349189E+00
  0.226138043250301E+00  0.427453037995177E+00  0.226138043250301E+00  0.427453037995177E+00  0.141222203831314E+00  0.442766375641334E+00
  0.208266590959765E+00  0.436861755318835E+00  0.208266590959765E+00  0.436861755318835E+00  0.121265666307110E+00  0.450851843387332E+00
  0.190234019945349E+00  0.445936408367513E+00  0.190234019945349E+00  0.445936408367513E+00  0.101246833487362E+00  0.458502247626111E+00
  0.172068704833719E+00  0.454665114303847E+00  0.172068704833719E+00  0.454665114303847E+00  0.812044383653512E-01  0.465717291737769E+00
  0.153800011177636E+00  0.463038954793084E+00  0.153800011177636E+00  0.463038954793084E+00  0.611766245455547E-01  0.472500817618076E+00
  0.135457922894911E+00  0.471052036674333E+00  0.135457922894911E+00  0.471052036674333E+00  0.412004330071826E-01  0.478860550409366E+00
  0.117072667389287E+00  0.478701489459342E+00  0.117072667389287E+00  0.478701489459342E+00  0.213113516566412E-01  0.484807767587182E+00
  0.986743500344600E-01  0.485987401912349E+00  0.986743500344600E-01  0.485987401912349E+00  0.154293822328366E-02  0.490356910521665E+00
  0.802926086978981E-01  0.492912702457623E+00  0.802926086978981E-01  0.492912702457623E+00 -0.180734777501110E-01  0.495525157487623E+00
  0.619562974334511E-01  0.499482990225131E+00  0.619562974334511E-01  0.499482990225131E+00 -0.375090126059407E-01  0.500331976618661E+00
  0.436932065384058E-01  0.505706325065199E+00  0.436932065384058E-01  0.505706325065199E+00 -0.567373686818779E-01  0.504798675735532E+00
  0.255298240277912E-01  0.511592985785431E+00  0.255298240277912E-01  0.511592985785431E+00 -0.757349026873105E-01  0.508947963637093E+00
  0.749114139998699E-02  0.517155206191982E+00  0.749114139998699E-02  0.517155206191982E+00 -0.944806304375782E-01  0.512803534647950E+00
 -0.103994954938344E-01  0.522406898306527E+00 -0.103994954938344E-01  0.522406898306527E+00 -0.112956177391710E+00  0.516389685267288E+00
 -0.281204914880969E-01  0.527363371471319E+00 -0.281204914880969E-01  0.527363371471319E+00 -0.131145685001822E+00  0.519730968902301E+00
 -0.456520655668275E-01  0.532041055059608E+00 -0.456520655668275E-01  0.532041055059608E+00 -0.149035682791177E+00  0.522851892075282E+00
 -0.629762764180825E-01  0.536457231296448E+00 -0.629762764180825E-01  0.536457231296448E+00 -0.166614935491887E+00  0.525776653276460E+00
 -0.800770145261309E-01  0.540629783378043E+00 -0.800770145261309E-01  0.540629783378043E+00 -0.183874273650143E+00  0.528528923847028E+00
 -0.969399656897128E-01  0.544576962753913E+00 -0.969399656897128E-01  0.544576962753913E+00 -0.200806414988314E+00  0.531131668922358E+00
 -0.113552550997006E+00  0.548317178182459E+00 -0.113552550997006E+00  0.548317178182459E+00 -0.217405782616624E+00  0.533607005514763E+00
 -0.129903848185773E+00  0.551868808042087E+00 -0.129903848185773E+00  0.551868808042087E+00 -0.233668325002060E+00  0.535976094217856E+00
 -0.145984499028819E+00  0.555250036410618E+00 -0.145984499028819E+00  0.555250036410618E+00 -0.249591341491659E+00  0.538259060709894E+00
 -0.161786606966900E+00  0.558478712630563E+00 -0.161786606966900E+00  0.558478712630563E+00 -0.265173316190915E+00  0.540474943159178E+00
 -0.177303628714351E+00  0.561572233457458E+00 -0.177303628714351E+00  0.561572233457458E+00 -0.280413762135904E+00  0.542641661731670E+00
 -0.192530263029830E+00  0.564547446432343E+00 -0.192530263029830E+00  0.564547446432343E+00 -0.295313076975802E+00  0.544776006617731E+00
 -0.207462339309437E+00  0.567420572810239E+00 -0.207462339309437E+00  0.567420572810239E+00 -0.309872410796326E+00  0.546893641287916E+00
 -0.222096708147302E+00  0.570207148192812E+00 -0.222096708147302E+00  0.570207148192812E+00 -0.324093546253326E+00  0.549009118022616E+00
 -0.236431135536484E+00  0.572921978932754E+00 -0.236431135536484E+00  0.572921978932754E+00 -0.337978790834872E+00  0.551135903110604E+00
 -0.250464201961081E+00  0.575579112377710E+00 -0.250464201961081E+00  0.575579112377710E+00 -0.351530880813647E+00  0.553286409458281E+00
 -0.264195207263706E+00  0.578191819082723E+00 -0.264195207263706E+00  0.578191819082723E+00 -0.364752896273410E+00  0.555472034681427E+00
 -0.277624081861626E+00  0.580772585224425E+00 -0.277624081861626E+00  0.580772585224425E+00 -0.377648186478744E+00  0.557703203056446E+00
 -0.290751304627782E+00  0.583333113582743E+00 -0.290751304627782E+00  0.583333113582743E+00 -0.390220304792902E+00  0.559989409983832E+00
 -0.303577827545520E+00  0.585884331604626E+00 -0.303577827545520E+00  0.585884331604626E+00 -0.402472952322640E+00  0.562339267861078E+00
 -0.316105007082935E+00  0.588436405219843E+00 -0.316105007082935E+00  0.588436405219843E+00 -0.414409929471844E+00  0.564760552475680E+00
 -0.328334542108620E+00  0.590998757234161E+00 -0.328334542108620E+00  0.590998757234161E+00 -0.426035094609264E+00  0.567260249212558E+00
 -0.340268418079557E+00  0.593580089275067E+00 -0.340268418079557E+00  0.593580089275067E+00 -0.437352329093565E+00  0.569844598526402E+00
 -0.351908857168421E+00  0.596188406406263E+00 -0.351908857168421E+00  0.596188406406263E+00 -0.448365507945847E+00  0.572519140260714E+00
 -0.363258273956672E+00  0.598831043657195E+00 -0.363258273956672E+00  0.598831043657195E+00 -0.459078475512100E+00  0.575288756504465E+00
 -0.374319236296976E+00  0.601514693831895E+00 -0.374319236296976E+00  0.601514693831895E+00 -0.469495025512573E+00  0.578157712767124E+00
 -0.385094430939805E+00  0.604245436066864E+00 -0.385094430939805E+00  0.604245436066864E+00 -0.479618884929768E+00  0.581129697325873E+00
 -0.395586633521247E+00  0.607028764700961E+00 -0.395586633521247E+00  0.607028764700961E+00 -0.489453701240070E+00  0.584207858657714E+00
 -0.405798682519297E+00  0.609869618101706E+00 -0.405798682519297E+00  0.609869618101706E+00 -0.499003032544906E+00  0.587394840915901E+00
 -0.415733456801854E+00  0.612772407162879E+00 -0.415733456801854E+00  0.612772407162879E+00 -0.508270340205094E+00  0.590692817446848E+00
 -0.425393856409616E+00  0.615741043248766E+00 -0.425393856409616E+00  0.615741043248766E+00 -0.517258983626335E+00  0.594103522371928E+00
 -0.434782786239444E+00  0.618778965411765E+00 -0.434782786239444E+00  0.618778965411765E+00 -0.525972216884469E+00  0.597628280279948E+00
 -0.443903142317446E+00  0.621889166753422E+00 -0.443903142317446E+00  0.621889166753422E+00 -0.534413186916098E+00  0.601268034091805E+00
 -0.452757800375223E+00  0.625074219835139E+00 -0.452757800375223E+00  0.625074219835139E+00 -0.542584933033591E+00  0.605023371169962E+00
 -0.461349606466627E+00  0.628336301074854E+00 -0.461349606466627E+00  0.628336301074854E+00 -0.550490387553540E+00  0.608894547752852E+00
 -0.469681369385656E+00  0.631677214090620E+00 -0.469681369385656E+00  0.631677214090620E+00 -0.558132377354537E+00  0.612881511798814E+00
 -0.477755854668332E+00  0.635098411972037E+00 -0.477755854668332E+00  0.635098411972037E+00 -0.565513626204038E+00  0.616983924326432E+00
 -0.485575779982435E+00  0.638601018476633E+00 -0.485575779982435E+00  0.638601018476633E+00 -0.572636757715233E+00  0.621201179338547E+00
 -0.493143811728581E+00  0.642185848161039E+00 -0.493143811728581E+00  0.642185848161039E+00 -0.579504298813542E+00  0.625532422416271E+00
 -0.500462562694377E+00  0.645853425466794E+00 -0.500462562694377E+00  0.645853425466794E+00 -0.586118683608811E+00  0.629976568067388E+00
 -0.507534590620110E+00  0.649604002788251E+00 -0.507534590620110E+00  0.649604002788251E+00 -0.592482257583779E+00  0.634532315910779E+00
 -0.514362397549834E+00  0.653437577555753E+00 -0.514362397549834E+00  0.653437577555753E+00 -0.598597282022019E+00  0.639198165775256E+00
 -0.520948429855640E+00  0.657353908371309E+00 -0.520948429855640E+00  0.657353908371309E+00 -0.604465938609698E+00  0.643972431787598E+00
 -0.527295078835625E+00  0.661352530236795E+00 -0.527295078835625E+00  0.661352530236795E+00 -0.610090334155120E+00  0.648853255520731E+00
 -0.533404681797490E+00  0.665432768916395E+00 -0.533404681797490E+00  0.665432768916395E+00 -0.615472505378499E+00  0.653838618269091E+00
 -0.539279523550034E+00  0.669593754475832E+00 -0.539279523550034E+00  0.669593754475832E+00 -0.620614423731671E+00  0.658926352514228E+00
 -0.544921838234034E+00  0.673834434041097E+00 -0.544921838234034E+00  0.673834434041097E+00 -0.625518000213880E+00  0.664114152639825E+00
 -0.550333811432336E+00  0.678153583819018E+00 -0.550333811432336E+00  0.678153583819018E+00 -0.630185090155223E+00  0.669399584951452E+00
 -0.555517582506327E+00  0.682549820421161E+00 -0.555517582506327E+00  0.682549820421161E+00 -0.634617497944144E+00  0.674780097052723E+00
 -0.560475247112586E+00  0.687021611531498E+00 -0.560475247112586E+00  0.687021611531498E+00 -0.638816981679437E+00  0.680253026625919E+00
 -0.565208859859387E+00  0.691567285956855E+00 -0.565208859859387E+00  0.691567285956855E+00 -0.642785257730810E+00  0.685815609661814E+00
 -0.569720437067905E+00  0.696185043097694E+00 -0.569720437067905E+00  0.696185043097694E+00 -0.646524005195065E+00  0.691464988180183E+00
 -0.574011959607612E+00  0.700872961875087E+00 -0.574011959607612E+00  0.700872961875087E+00 -0.650034870237581E+00  0.697198217479477E+00
 -0.578085375779440E+00  0.705629009148088E+00 -0.578085375779440E+00  0.705629009148088E+00 -0.653319470311025E+00  0.703012272951282E+00
 -0.581942604223895E+00  0.710451047653941E+00 -0.581942604223895E+00  0.710451047653941E+00 -0.656379398245128E+00  0.708904056492507E+00
 -0.585585536834479E+00  0.715336843501838E+00 -0.585585536834479E+00  0.715336843501838E+00 -0.659216226202979E+00  0.714870402545759E+00
 -0.589016041659608E+00  0.720284073249206E+00 -0.589016041659608E+00  0.720284073249206E+00 -0.661831509500692E+00  0.720908083796017E+00
 -0.592235965778665E+00  0.725290330587821E+00 -0.592235965778665E+00  0.725290330587821E+00 -0.664226790288442E+00  0.727013816549563E+00
 -0.595247138140017E+00  0.730353132665420E+00 -0.595247138140017E+00  0.730353132665420E+00 -0.666403601091887E+00  0.733184265819100E+00
 -0.598051372350699E+00  0.735469926066848E+00 -0.598051372350699E+00  0.735469926066848E+00 -0.668363468213784E+00  0.739416050137118E+00
 -0.600650469409186E+00  0.740638092477327E+00 -0.600650469409186E+00  0.740638092477327E+00 -0.670107914996316E+00  0.745705746117827E+00
 -0.603046220374078E+00  0.745854954048907E+00 -0.603046220374078E+00  0.745854954048907E+00 -0.671638464945220E+00  0.752049892786401E+00
 -0.605240408962844E+00  0.751117778489823E+00 -0.605240408962844E+00  0.751117778489823E+00 -0.672956644717265E+00  0.758444995692732E+00
 -0.607234814075870E+00  0.756423783895147E+00 -0.607234814075870E+00  0.756423783895147E+00 -0.674063986973018E+00  0.764887530825580E+00
 -0.609031212241999E+00  0.761770143335875E+00 -0.609031212241999E+00  0.761770143335875E+00 -0.674962033097144E+00  0.771373948341704E+00
 -0.610631379982648E+00  0.767153989222441E+00 -0.610631379982648E+00  0.767153989222441E+00 -0.675652335788734E+00  0.777900676123385E+00
 -0.612037096092257E+00  0.772572417457502E+00 -0.612037096092257E+00  0.772572417457502E+00 -0.676136461524331E+00  0.784464123176684E+00
 -0.613250143833496E+00  0.778022491391846E+00 -0.613250143833496E+00  0.778022491391846E+00 -0.676415992896500E+00  0.791060682881779E+00
 -0.614272313046189E+00  0.783501245596269E+00 -0.614272313046189E+00  0.783501245596269E+00 -0.676492530830843E+00  0.797686736105797E+00
 -0.615105402169377E+00  0.789005689461354E+00 -0.615105402169377E+00  0.789005689461354E+00 -0.676367696684489E+00  0.804338654187715E+00
 -0.615751220176357E+00  0.794532810636252E+00 -0.615751220176357E+00  0.794532810636252E+00 -0.676043134229082E+00  0.811012801804124E+00
 -0.616211588422858E+00  0.800079578316744E+00 -0.616211588422858E+00  0.800079578316744E+00 -0.675520511521354E+00  0.817705539723926E+00
 -0.616488342408835E+00  0.805642946392122E+00 -0.616488342408835E+00  0.805642946392122E+00 -0.674801522664329E+00  0.824413227459370E+00
 -0.616583333454574E+00  0.811219856459744E+00 -0.616583333454574E+00  0.811219856459744E+00 -0.673887889462232E+00  0.831132225820230E+00
 -0.616498430292050E+00  0.816807240715442E+00 -0.616498430292050E+00  0.816807240715442E+00 -0.672781362972112E+00  0.837858899377353E+00
 -0.616235520572612E+00  0.822402024727383E+00 -0.616235520572612E+00  0.822402024727383E+00 -0.671483724955173E+00  0.844589618841295E+00
 -0.615796512292253E+00  0.828001130100411E+00 -0.615796512292253E+00  0.828001130100411E+00 -0.669996789230757E+00  0.851320763361284E+00
 -0.615183335135807E+00  0.833601477037354E+00 -0.615183335135807E+00  0.833601477037354E+00 -0.668322402935847E+00  0.858048722749300E+00
 -0.614397941741538E+00  0.839199986803335E+00 -0.614397941741538E+00  0.839199986803335E+00 -0.666462447692941E+00  0.864769899633669E+00
 -0.613442308887647E+00  0.844793584098619E+00 -0.613442308887647E+00  0.844793584098619E+00 -0.664418840689032E+00  0.871480711546192E+00
 -0.612318438602284E+00  0.850379199345155E+00 -0.612318438602284E+00  0.850379199345155E+00 -0.662193535668423E+00  0.878177592946473E+00
 -0.611028359198714E+00  0.855953770891542E+00 -0.611028359198714E+00  0.855953770891542E+00 -0.659788523841974E+00  0.884856997186811E+00
 -0.609574126237287E+00  0.861514247140806E+00 -0.609574126237287E+00  0.861514247140806E+00 -0.657205834715367E+00  0.891515398420714E+00
 -0.607957823415919E+00  0.867057588605029E+00 -0.607957823415919E+00  0.867057588605029E+00 -0.654447536838871E+00  0.898149293457836E+00
 -0.606181563390780E+00  0.872580769890553E+00 -0.606181563390780E+00  0.872580769890553E+00 -0.651515738481030E+00  0.904755203567877E+00
 -0.604247488528908E+00  0.878080781617192E+00 -0.604247488528908E+00  0.878080781617192E+00 -0.648412588228628E+00  0.911329676235773E+00
 -0.602157771594441E+00  0.883554632274620E+00 -0.602157771594441E+00  0.883554632274620E+00 -0.645140275515225E+00  0.917869286870275E+00
 -0.599914616370188E+00  0.888999350018836E+00 -0.599914616370188E+00  0.888999350018836E+00 -0.641701031080475E+00  0.924370640467836E+00
 -0.597520258216228E+00  0.894411984411391E+00 -0.597520258216228E+00  0.894411984411391E+00 -0.638097127362395E+00  0.930830373233535E+00
 -0.594976964567194E+00  0.899789608103828E+00 -0.594976964567194E+00  0.899789608103828E+00 -0.634330878824670E+00  0.937245154160619E+00
 -0.592287035369930E+00  0.905129318469590E+00 -0.592287035369930E+00  0.905129318469590E+00 -0.630404642221038E+00  0.943611686570068E+00
 -0.589452803463142E+00  0.910428239185475E+00 -0.589452803463142E+00  0.910428239185475E+00 -0.626320816798710E+00  0.949926709611465E+00
 -0.586476634900658E+00  0.915683521764518E+00 -0.586476634900658E+00  0.915683521764518E+00 -0.622081844442776E+00  0.956186999726326E+00
 -0.583360929219897E+00  0.920892347042044E+00 -0.583360929219897E+00  0.920892347042044E+00 -0.617690209763425E+00  0.962389372074912E+00
 -0.580108119657117E+00  0.926051926616471E+00 -0.580108119657117E+00  0.926051926616471E+00 -0.613148440127816E+00  0.968530681927441E+00
 -0.576720673310967E+00  0.931159504246299E+00 -0.576720673310967E+00  0.931159504246299E+00 -0.608459105638348E+00  0.974607826020531E+00
 -0.573201091255879E+00  0.936212357204612E+00 -0.573201091255879E+00  0.936212357204612E+00 -0.603624819059052E+00  0.980617743879592E+00
 -0.569551908606775E+00  0.941207797592273E+00 -0.569551908606775E+00  0.941207797592273E+00 -0.598648235691756E+00  0.986557419107799E+00
 -0.565775694536555E+00  0.946143173610902E+00 -0.565775694536555E+00  0.946143173610902E+00 -0.593532053203662E+00  0.992423880642235E+00
 -0.561875052247800E+00  0.951015870796608E+00 -0.561875052247800E+00  0.951015870796608E+00 -0.588279011407914E+00  0.998214203977652E+00
 -0.557852618900106E+00  0.955823313215360E+00 -0.557852618900106E+00  0.955823313215360E+00 -0.582891891998681E+00  0.100392551235831E+01
 -0.553711065494416E+00  0.960562964620790E+00 -0.553711065494416E+00  0.960562964620790E+00 -0.577373518242288E+00  0.100955497793825E+01
 -0.549453096715729E+00  0.965232329575130E+00 -0.549453096715729E+00  0.965232329575130E+00 -0.571726754625831E+00  0.101509982291024E+01
 -0.545081450735495E+00  0.969828954533913E+00 -0.545081450735495E+00  0.969828954533913E+00 -0.565954506464735E+00  0.102055732060376E+01
 -0.540598898975029E+00  0.974350428895005E+00 -0.540598898975029E+00  0.974350428895005E+00 -0.560059719470643E+00  0.102592479655216E+01
 -0.536008245831203E+00  0.978794386012450E+00 -0.536008245831203E+00  0.978794386012450E+00 -0.554045379281006E+00  0.103119962952909E+01
 -0.531312328365692E+00  0.983158504175554E+00 -0.531312328365692E+00  0.983158504175554E+00 -0.547914510951724E+00  0.103637925255447E+01
 -0.526514015959018E+00  0.987440507553593E+00 -0.526514015959018E+00  0.987440507553593E+00 -0.541670178414141E+00  0.104146115386993E+01
 -0.521616209930588E+00  0.991638167106444E+00 -0.521616209930588E+00  0.991638167106444E+00 -0.535315483897691E+00  0.104644287788392E+01
 -0.516621843125939E+00  0.995749301461409E+00 -0.516621843125939E+00  0.995749301461409E+00 -0.528853567319461E+00  0.105132202608627E+01
 -0.511533879472364E+00  0.999771777756459E+00 -0.511533879472364E+00  0.999771777756459E+00 -0.522287605641896E+00  0.105609625793251E+01
 -0.506355313504067E+00  0.100370351245006E+01 -0.506355313504067E+00  0.100370351245006E+01 -0.515620812199885E+00  0.106076329169758E+01
 -0.501089169857992E+00  0.100754247209770E+01 -0.501089169857992E+00  0.100754247209770E+01 -0.508856435998417E+00  0.106532090529909E+01
 -0.495738502741439E+00  0.101128667409529E+01 -0.495738502741439E+00  0.101128667409529E+01 -0.501997760981983E+00  0.106976693708996E+01
 -0.490306395372575E+00  0.101493418738934E+01 -0.490306395372575E+00  0.101493418738934E+01 -0.495048105276898E+00  0.107409928662031E+01
 -0.484795959394918E+00  0.101848313315409E+01 -0.484795959394918E+00  0.101848313315409E+01 -0.488010820407674E+00  0.107831591536849E+01
 -0.479210334266868E+00  0.102193168543554E+01 -0.479210334266868E+00  0.102193168543554E+01 -0.480889290488585E+00  0.108241484744114E+01
 -0.473552686627336E+00  0.102527807176223E+01 -0.473552686627336E+00  0.102527807176223E+01 -0.473686931391527E+00  0.108639417024202E+01
 -0.467826209638504E+00  0.102852057372293E+01 -0.467826209638504E+00  0.102852057372293E+01 -0.466407189891281E+00  0.109025203510956E+01
 -0.462034122306752E+00  0.103165752751088E+01 -0.462034122306752E+00  0.103165752751088E+01 -0.459053542789270E+00  0.109398665792281E+01
 -0.456179668782742E+00  0.103468732443466E+01 -0.456179668782742E+00  0.103468732443466E+01 -0.451629496016868E+00  0.109759631967567E+01
 -0.450266117641678E+00  0.103760841139545E+01 -0.450266117641678E+00  0.103760841139545E+01 -0.444138583719340E+00  0.110107936701911E+01
 -0.444296761144702E+00  0.104041929133053E+01 -0.444296761144702E+00  0.104041929133053E+01 -0.436584367321465E+00  0.110443421277122E+01
 -0.438274914482412E+00  0.104311852362282E+01 -0.438274914482412E+00  0.104311852362282E+01 -0.428970434575875E+00  0.110765933639479E+01
 -0.432203915001450E+00  0.104570472447625E+01 -0.432203915001450E+00  0.104570472447625E+01 -0.421300398595151E+00  0.111075328444219E+01
 -0.426087121415107E+00  0.104817656725675E+01 -0.426087121415107E+00  0.104817656725675E+01 -0.413577896868700E+00  0.111371467096727E+01
 -0.419927912998887E+00  0.105053278279853E+01 -0.419927912998887E+00  0.105053278279853E+01 -0.405806590265428E+00  0.111654217790400E+01
 -0.413729688771933E+00  0.105277215967541E+01 -0.413729688771933E+00  0.105277215967541E+01 -0.397990162023217E+00  0.111923455541166E+01
 -0.407495866665244E+00  0.105489354443699E+01 -0.407495866665244E+00  0.105489354443699E+01 -0.390132316726213E+00  0.112179062218604E+01
 -0.401229882677566E+00  0.105689584180914E+01 -0.401229882677566E+00  0.105689584180914E+01 -0.382236779270916E+00  0.112420926573671E+01
 -0.394935190019862E+00  0.105877801485863E+01 -0.394935190019862E+00  0.105877801485863E+01 -0.374307293822055E+00  0.112648944262967E+01
 -0.388615258249211E+00  0.106053908512154E+01 -0.388615258249211E+00  0.106053908512154E+01 -0.366347622759255E+00  0.112863017869533E+01
 -0.382273572393025E+00  0.106217813269495E+01 -0.382273572393025E+00  0.106217813269495E+01 -0.358361545615433E+00  0.113063056920137E+01