 VARIABLES =  $x$  $\epsilon=10^{-1}$  $x$2  $\epsilon=10^{-2}$  $x$3  $\epsilon=10^{-3}$
 ZONE I=        1001 ,DATAPACKING=POINT
  0.994000000000000E+00  0.000000000000000E+00  0.994000000000000E+00  0.000000000000000E+00  0.994000000000000E+00  0.000000000000000E+00
  0.979980985627391E+00 -0.196990452373851E-01  0.979980985627391E+00 -0.196990452373851E-01  0.979257235625160E+00 -0.193905339588246E-01
  0.965712655275681E+00 -0.278395907361604E-01  0.965712655275681E+00 -0.278395907361604E-01  0.964467248246829E+00 -0.272224728317449E-01
  0.953020040595112E+00 -0.330313977767405E-01  0.953020040595112E+00 -0.330313977767405E-01  0.951323981348807E+00 -0.321953969797592E-01
  0.941300766900611E+00 -0.366794876218891E-01  0.941300766900611E+00 -0.366794876218891E-01  0.939167041045376E+00 -0.356815309017063E-01
  0.930246478877938E+00 -0.392872678037061E-01  0.930246478877938E+00 -0.392872678037061E-01  0.927670632991163E+00 -0.381631089788689E-01
  0.919679728070021E+00 -0.411006874588514E-01  0.919679728070021E+00 -0.411006874588514E-01  0.916650406994475E+00 -0.398728280502044E-01
  0.909487610102529E+00 -0.422612246538009E-01  0.909487610102529E+00 -0.422612246538009E-01  0.905990332264243E+00 -0.409432164858407E-01
  0.899592870066235E+00 -0.428589846996430E-01  0.899592870066235E+00 -0.428589846996430E-01  0.895611651006633E+00 -0.414579239158323E-01
  0.889939682344350E+00 -0.429554858565398E-01  0.889939682344350E+00 -0.429554858565398E-01  0.885457816076666E+00 -0.414735643272688E-01
  0.880485942134633E+00 -0.425948935490998E-01  0.880485942134633E+00 -0.425948935490998E-01  0.875486403907259E+00 -0.410304228306002E-01
  0.871198763108166E+00 -0.418101355138388E-01  0.871198763108166E+00 -0.418101355138388E-01  0.865664423826309E+00 -0.401582564584305E-01
  0.862051688438955E+00 -0.406264882398357E-01  0.862051688438955E+00 -0.406264882398357E-01  0.855965427568704E+00 -0.388796832428107E-01
  0.853022879197864E+00 -0.390638071109359E-01  0.853022879197864E+00 -0.390638071109359E-01  0.846367639048765E+00 -0.372122830637913E-01
  0.844093890567468E+00 -0.371379804553322E-01  0.844093890567468E+00 -0.371379804553322E-01  0.836852694468340E+00 -0.351699640250901E-01
  0.835248817377483E+00 -0.348619157009488E-01  0.835248817377483E+00 -0.348619157009488E-01  0.827404764119220E+00 -0.327638874895955E-01
  0.826473680329054E+00 -0.322462310667627E-01  0.826473680329054E+00 -0.322462310667627E-01  0.818009921908624E+00 -0.300031162361259E-01
  0.817755974024868E+00 -0.292997551822851E-01  0.817755974024868E+00 -0.292997551822851E-01  0.808655680779342E+00 -0.268950825875071E-01
  0.809084326710434E+00 -0.260298975969270E-01  0.809084326710434E+00 -0.260298975969270E-01  0.799330642241454E+00 -0.234459359382123E-01
  0.800448238939054E+00 -0.224429302744056E-01  0.800448238939054E+00 -0.224429302744056E-01  0.790024226229519E+00 -0.196608074654357E-01
  0.791837879129668E+00 -0.185442063979103E-01  0.791837879129668E+00 -0.185442063979103E-01  0.780726458649414E+00 -0.155440168069980E-01
  0.783243920870820E+00 -0.143383342447897E-01  0.783243920870820E+00 -0.143383342447897E-01  0.771427801096226E+00 -0.110992374213554E-01
  0.774657411346491E+00 -0.982931840454461E-02  0.774657411346491E+00 -0.982931840454461E-02  0.762119011890339E+00 -0.632963219301472E-02
  0.766069663301769E+00 -0.502067701227602E-02  0.766069663301769E+00 -0.502067701227602E-02  0.752791030712944E+00 -0.123796747349241E-02
  0.757472165057910E+00  0.844587489245279E-04  0.757472165057910E+00  0.844587489245279E-04  0.743434881275859E+00  0.417328850971910E-02
  0.748856504554281E+00  0.548325828032261E-02  0.748856504554281E+00  0.548325828032261E-02  0.734041587973368E+00  0.990187848444152E-02
  0.740214304445562E+00  0.111731148944414E-01  0.740214304445562E+00  0.111731148944414E-01  0.724602103550072E+00  0.159456768834022E-01
  0.731537166050097E+00  0.171515762163422E-01  0.731537166050097E+00  0.171515762163422E-01  0.715107245616953E+00  0.223026159446565E-01
  0.722816620517391E+00  0.234162796297717E-01  0.722816620517391E+00  0.234162796297717E-01  0.705547640449353E+00  0.289706151353949E-01
  0.714044086018751E+00  0.299648911705772E-01  0.714044086018751E+00  0.299648911705772E-01  0.695913672966741E+00  0.359475122641084E-01
  0.705210830105268E+00  0.367950465906478E-01  0.705210830105268E+00  0.367950465906478E-01  0.686195442167283E+00  0.432309949363270E-01
  0.696307936649909E+00  0.439042935583134E-01  0.696307936649909E+00  0.439042935583134E-01  0.676382721599690E+00  0.508185312289227E-01
  0.687326277015100E+00  0.512900341488506E-01  0.687326277015100E+00  0.512900341488506E-01  0.666464924721621E+00  0.587072986301787E-01
  0.678256485277929E+00  0.589494669283130E-01  0.678256485277929E+00  0.589494669283130E-01  0.656431075233000E+00  0.668941104346564E-01
  0.669088937512082E+00  0.668795280578750E-01  0.669088937512082E+00  0.668795280578750E-01  0.646269782694904E+00  0.753753389069348E-01
  0.659813735275934E+00  0.750768309539837E-01  0.659813735275934E+00  0.750768309539837E-01  0.635969223957790E+00  0.841468346478915E-01
  0.650420693595024E+00  0.835376041396555E-01  0.650420693595024E+00  0.835376041396555E-01  0.625517131132114E+00  0.932038417214190E-01
  0.640899333857694E+00  0.922576270208390E-01  0.640899333857694E+00  0.922576270208390E-01  0.614900787042680E+00  0.102540908237757E+00
  0.631238882166922E+00  0.101232163424629E+00  0.631238882166922E+00  0.101232163424629E+00  0.604107029316420E+00  0.112151792251174E+00
  0.621428273810002E+00  0.110455892848478E+00  0.621428273810002E+00  0.110455892848478E+00  0.593122264460285E+00  0.122029363023777E+00
  0.611456164620027E+00  0.119922839496255E+00  0.611456164620027E+00  0.119922839496255E+00  0.581932493487690E+00  0.132165497942998E+00
  0.601310950107276E+00  0.129626299322470E+00  0.601310950107276E+00  0.129626299322470E+00  0.570523350841777E+00  0.142550975667016E+00
  0.590980793331284E+00  0.139558765474356E+00  0.590980793331284E+00  0.139558765474356E+00  0.558880158531442E+00  0.153175366418576E+00
  0.580453662560771E+00  0.149711852716240E+00  0.580453662560771E+00  0.149711852716240E+00  0.546987997527529E+00  0.164026920761010E+00
  0.569717379822446E+00  0.160076221644522E+00  0.569717379822446E+00  0.160076221644522E+00  0.534831798543296E+00  0.175092458675914E+00
  0.558759681462712E+00  0.170641503756080E+00  0.558759681462712E+00  0.170641503756080E+00  0.522396454321973E+00  0.186357261321885E+00
  0.547568291828826E+00  0.181396228717879E+00  0.547568291828826E+00  0.181396228717879E+00  0.509666955446779E+00  0.197804968484300E+00
  0.536131011106492E+00  0.192327755498614E+00  0.536131011106492E+00  0.192327755498614E+00  0.496628551442764E+00  0.209417485416348E+00
  0.524435818216382E+00  0.203422209358649E+00  0.524435818216382E+00  0.203422209358649E+00  0.483266938519598E+00  0.221174903500295E+00
  0.512470989458924E+00  0.214664427043241E+00  0.512470989458924E+00  0.214664427043241E+00  0.469568474673550E+00  0.233055439891428E+00
  0.500225233291152E+00  0.226037912871867E+00  0.500225233291152E+00  0.226037912871867E+00  0.455520421991504E+00  0.245035401996216E+00
  0.487687841208743E+00  0.237524808744180E+00  0.487687841208743E+00  0.237524808744180E+00  0.441111214854046E+00  0.257089183215056E+00
  0.474848854181003E+00  0.249105881365479E+00  0.474848854181003E+00  0.249105881365479E+00  0.426330751307016E+00  0.269189296765261E+00
  0.461699243441549E+00  0.260760530200427E+00  0.461699243441549E+00  0.260760530200427E+00  0.411170703172846E+00  0.281306454493180E+00
  0.448231103675394E+00  0.272466819756697E+00  0.448231103675394E+00  0.272466819756697E+00  0.395624838547296E+00  0.293409697277285E+00
  0.434437855776921E+00  0.284201539739828E+00  0.434437855776921E+00  0.284201539739828E+00  0.379689348256845E+00  0.305466582807779E+00
  0.420314455408232E+00  0.295940296365262E+00  0.420314455408232E+00  0.295940296365262E+00  0.363363165765622E+00  0.317443435107780E+00
  0.405857602604147E+00  0.307657637624023E+00  0.405857602604147E+00  0.307657637624023E+00  0.346648268094680E+00  0.329305658073354E+00
  0.391065946705360E+00  0.319327214543264E+00  0.391065946705360E+00  0.319327214543264E+00  0.329549943768077E+00  0.341018112544935E+00
  0.375940280027180E+00  0.330921979443986E+00  0.375940280027180E+00  0.330921979443986E+00  0.312077012873212E+00  0.352545553045489E+00
  0.360483712973046E+00  0.342414420877882E+00  0.360483712973046E+00  0.342414420877882E+00  0.294241984260662E+00  0.363853116486592E+00
  0.344701822872247E+00  0.353776833352217E+00  0.344701822872247E+00  0.353776833352217E+00  0.276061135919470E+00  0.374906851104886E+00
  0.328602768751360E+00  0.364981618185782E+00  0.328602768751360E+00  0.364981618185782E+00  0.257554506778577E+00  0.385674269989589E+00
  0.312197364618447E+00  0.376001609972863E+00  0.312197364618447E+00  0.376001609972863E+00  0.238745791618570E+00  0.396124910199378E+00
  0.295499104703059E+00  0.386810421289112E+00  0.295499104703059E+00  0.386810421289112E+00  0.219662135297989E+00  0.406230876062088E+00
  0.278524135471645E+00  0.397382796599405E+00  0.278524135471645E+00  0.397382796599405E+00  0.200333827816313E+00  0.415967344176258E+00
  0.261291171098369E+00  0.407694964979904E+00  0.261291171098369E+00  0.407694964979904E+00  0.180793907422088E+00  0.425313008153129E+00
  0.243821351334209E+00  0.417724980394655E+00  0.243821351334209E+00  0.417724980394655E+00  0.161077684504752E+00  0.434250443349189E+00
  0.226138043250302E+00  0.427453037995177E+00  0.226138043250302E+00  0.427453037995177E+00  0.141222203831320E+00  0.442766375641334E+00
  0.208266590959766E+00  0.436861755318835E+00  0.208266590959766E+00  0.436861755318835E+00  0.121265666307116E+00  0.450851843387333E+00
  0.190234019945349E+00  0.445936408367513E+00  0.190234019945349E+00  0.445936408367513E+00  0.101246833487367E+00  0.458502247626112E+00
  0.172068704833719E+00  0.454665114303847E+00  0.172068704833719E+00  0.454665114303847E+00  0.812044383653571E-01  0.465717291737770E+00
  0.153800011177637E+00  0.463038954793084E+00  0.153800011177637E+00  0.463038954793084E+00  0.611766245455608E-01  0.472500817618077E+00
  0.135457922894912E+00  0.471052036674334E+00  0.135457922894912E+00  0.471052036674334E+00  0.412004330071890E-01  0.478860550409367E+00
  0.117072667389287E+00  0.478701489459342E+00  0.117072667389287E+00  0.478701489459342E+00  0.213113516566477E-01  0.484807767587183E+00
  0.986743500344604E-01  0.485987401912349E+00  0.986743500344604E-01  0.485987401912349E+00  0.154293822329040E-02  0.490356910521667E+00
  0.802926086978985E-01  0.492912702457623E+00  0.802926086978985E-01  0.492912702457623E+00 -0.180734777501040E-01  0.495525157487625E+00
  0.619562974334515E-01  0.499482990225131E+00  0.619562974334515E-01  0.499482990225131E+00 -0.375090126059335E-01  0.500331976618663E+00
  0.436932065384062E-01  0.505706325065199E+00  0.436932065384062E-01  0.505706325065199E+00 -0.567373686818705E-01  0.504798675735535E+00
  0.255298240277917E-01  0.511592985785431E+00  0.255298240277917E-01  0.511592985785431E+00 -0.757349026873029E-01  0.508947963637095E+00
  0.749114139998743E-02  0.517155206191982E+00  0.749114139998743E-02  0.517155206191982E+00 -0.944806304375705E-01  0.512803534647953E+00
 -0.103994954938339E-01  0.522406898306527E+00 -0.103994954938339E-01  0.522406898306527E+00 -0.112956177391702E+00  0.516389685267291E+00
 -0.281204914880964E-01  0.527363371471319E+00 -0.281204914880964E-01  0.527363371471319E+00 -0.131145685001814E+00  0.519730968902305E+00
 -0.456520655668270E-01  0.532041055059608E+00 -0.456520655668270E-01  0.532041055059608E+00 -0.149035682791169E+00  0.522851892075285E+00
 -0.629762764180820E-01  0.536457231296448E+00 -0.629762764180820E-01  0.536457231296448E+00 -0.166614935491879E+00  0.525776653276463E+00
 -0.800770145261304E-01  0.540629783378044E+00 -0.800770145261304E-01  0.540629783378044E+00 -0.183874273650134E+00  0.528528923847032E+00
 -0.969399656897123E-01  0.544576962753914E+00 -0.969399656897123E-01  0.544576962753914E+00 -0.200806414988305E+00  0.531131668922362E+00
 -0.113552550997006E+00  0.548317178182459E+00 -0.113552550997006E+00  0.548317178182459E+00 -0.217405782616616E+00  0.533607005514767E+00
 -0.129903848185772E+00  0.551868808042088E+00 -0.129903848185772E+00  0.551868808042088E+00 -0.233668325002051E+00  0.535976094217860E+00
 -0.145984499028819E+00  0.555250036410619E+00 -0.145984499028819E+00  0.555250036410619E+00 -0.249591341491650E+00  0.538259060709898E+00
 -0.161786606966899E+00  0.558478712630563E+00 -0.161786606966899E+00  0.558478712630563E+00 -0.265173316190906E+00  0.540474943159182E+00
 -0.177303628714350E+00  0.561572233457458E+00 -0.177303628714350E+00  0.561572233457458E+00 -0.280413762135895E+00  0.542641661731674E+00
 -0.192530263029829E+00  0.564547446432344E+00 -0.192530263029829E+00  0.564547446432344E+00 -0.295313076975793E+00  0.544776006617735E+00
 -0.207462339309436E+00  0.567420572810239E+00 -0.207462339309436E+00  0.567420572810239E+00 -0.309872410796316E+00  0.546893641287921E+00
 -0.222096708147302E+00  0.570207148192812E+00 -0.222096708147302E+00  0.570207148192812E+00 -0.324093546253316E+00  0.549009118022621E+00
 -0.236431135536484E+00  0.572921978932754E+00 -0.236431135536484E+00  0.572921978932754E+00 -0.337978790834863E+00  0.551135903110609E+00
 -0.250464201961080E+00  0.575579112377711E+00 -0.250464201961080E+00  0.575579112377711E+00 -0.351530880813637E+00  0.553286409458286E+00
 -0.264195207263705E+00  0.578191819082724E+00 -0.264195207263705E+00  0.578191819082724E+00 -0.364752896273400E+00  0.555472034681431E+00
 -0.277624081861625E+00  0.580772585224425E+00 -0.277624081861625E+00  0.580772585224425E+00 -0.377648186478734E+00  0.557703203056451E+00
 -0.290751304627781E+00  0.583333113582743E+00 -0.290751304627781E+00  0.583333113582743E+00 -0.390220304792892E+00  0.559989409983837E+00
 -0.303577827545519E+00  0.585884331604626E+00 -0.303577827545519E+00  0.585884331604626E+00 -0.402472952322630E+00  0.562339267861083E+00
 -0.316105007082934E+00  0.588436405219844E+00 -0.316105007082934E+00  0.588436405219844E+00 -0.414409929471833E+00  0.564760552475684E+00
 -0.328334542108619E+00  0.590998757234161E+00 -0.328334542108619E+00  0.590998757234161E+00 -0.426035094609254E+00  0.567260249212563E+00
 -0.340268418079557E+00  0.593580089275068E+00 -0.340268418079557E+00  0.593580089275068E+00 -0.437352329093554E+00  0.569844598526407E+00
 -0.351908857168420E+00  0.596188406406263E+00 -0.351908857168420E+00  0.596188406406263E+00 -0.448365507945836E+00  0.572519140260719E+00
 -0.363258273956671E+00  0.598831043657195E+00 -0.363258273956671E+00  0.598831043657195E+00 -0.459078475512089E+00  0.575288756504470E+00
 -0.374319236296976E+00  0.601514693831896E+00 -0.374319236296976E+00  0.601514693831896E+00 -0.469495025512563E+00  0.578157712767128E+00
 -0.385094430939804E+00  0.604245436066865E+00 -0.385094430939804E+00  0.604245436066865E+00 -0.479618884929757E+00  0.581129697325878E+00
 -0.395586633521247E+00  0.607028764700962E+00 -0.395586633521247E+00  0.607028764700962E+00 -0.489453701240058E+00  0.584207858657719E+00
 -0.405798682519297E+00  0.609869618101707E+00 -0.405798682519297E+00  0.609869618101707E+00 -0.499003032544895E+00  0.587394840915906E+00
 -0.415733456801853E+00  0.612772407162880E+00 -0.415733456801853E+00  0.612772407162880E+00 -0.508270340205083E+00  0.590692817446853E+00
 -0.425393856409616E+00  0.615741043248766E+00 -0.425393856409616E+00  0.615741043248766E+00 -0.517258983626323E+00  0.594103522371933E+00
 -0.434782786239444E+00  0.618778965411766E+00 -0.434782786239444E+00  0.618778965411766E+00 -0.525972216884457E+00  0.597628280279953E+00
 -0.443903142317446E+00  0.621889166753423E+00 -0.443903142317446E+00  0.621889166753423E+00 -0.534413186916086E+00  0.601268034091810E+00
 -0.452757800375222E+00  0.625074219835139E+00 -0.452757800375222E+00  0.625074219835139E+00 -0.542584933033579E+00  0.605023371169967E+00
 -0.461349606466626E+00  0.628336301074855E+00 -0.461349606466626E+00  0.628336301074855E+00 -0.550490387553528E+00  0.608894547752856E+00
 -0.469681369385655E+00  0.631677214090620E+00 -0.469681369385655E+00  0.631677214090620E+00 -0.558132377354525E+00  0.612881511798818E+00
 -0.477755854668332E+00  0.635098411972037E+00 -0.477755854668332E+00  0.635098411972037E+00 -0.565513626204026E+00  0.616983924326437E+00
 -0.485575779982434E+00  0.638601018476634E+00 -0.485575779982434E+00  0.638601018476634E+00 -0.572636757715221E+00  0.621201179338552E+00
 -0.493143811728581E+00  0.642185848161040E+00 -0.493143811728581E+00  0.642185848161040E+00 -0.579504298813529E+00  0.625532422416275E+00
 -0.500462562694376E+00  0.645853425466795E+00 -0.500462562694376E+00  0.645853425466795E+00 -0.586118683608798E+00  0.629976568067392E+00
 -0.507534590620110E+00  0.649604002788252E+00 -0.507534590620110E+00  0.649604002788252E+00 -0.592482257583766E+00  0.634532315910783E+00
 -0.514362397549833E+00  0.653437577555754E+00 -0.514362397549833E+00  0.653437577555754E+00 -0.598597282022006E+00  0.639198165775260E+00
 -0.520948429855639E+00  0.657353908371310E+00 -0.520948429855639E+00  0.657353908371310E+00 -0.604465938609685E+00  0.643972431787602E+00
 -0.527295078835624E+00  0.661352530236796E+00 -0.527295078835624E+00  0.661352530236796E+00 -0.610090334155107E+00  0.648853255520735E+00
 -0.533404681797490E+00  0.665432768916396E+00 -0.533404681797490E+00  0.665432768916396E+00 -0.615472505378486E+00  0.653838618269095E+00
 -0.539279523550033E+00  0.669593754475833E+00 -0.539279523550033E+00  0.669593754475833E+00 -0.620614423731657E+00  0.658926352514232E+00
 -0.544921838234034E+00  0.673834434041099E+00 -0.544921838234034E+00  0.673834434041099E+00 -0.625518000213866E+00  0.664114152639829E+00
 -0.550333811432336E+00  0.678153583819019E+00 -0.550333811432336E+00  0.678153583819019E+00 -0.630185090155210E+00  0.669399584951456E+00
 -0.555517582506326E+00  0.682549820421162E+00 -0.555517582506326E+00  0.682549820421162E+00 -0.634617497944131E+00  0.674780097052726E+00
 -0.560475247112585E+00  0.687021611531499E+00 -0.560475247112585E+00  0.687021611531499E+00 -0.638816981679423E+00  0.680253026625922E+00
 -0.565208859859387E+00  0.691567285956856E+00 -0.565208859859387E+00  0.691567285956856E+00 -0.642785257730796E+00  0.685815609661817E+00
 -0.569720437067905E+00  0.696185043097695E+00 -0.569720437067905E+00  0.696185043097695E+00 -0.646524005195051E+00  0.691464988180185E+00
 -0.574011959607612E+00  0.700872961875088E+00 -0.574011959607612E+00  0.700872961875088E+00 -0.650034870237567E+00  0.697198217479479E+00
 -0.578085375779440E+00  0.705629009148089E+00 -0.578085375779440E+00  0.705629009148089E+00 -0.653319470311011E+00  0.703012272951284E+00
 -0.581942604223895E+00  0.710451047653943E+00 -0.581942604223895E+00  0.710451047653943E+00 -0.656379398245114E+00  0.708904056492509E+00
 -0.585585536834479E+00  0.715336843501840E+00 -0.585585536834479E+00  0.715336843501840E+00 -0.659216226202966E+00  0.714870402545760E+00
 -0.589016041659607E+00  0.720284073249207E+00 -0.589016041659607E+00  0.720284073249207E+00 -0.661831509500678E+00  0.720908083796017E+00
 -0.592235965778665E+00  0.725290330587823E+00 -0.592235965778665E+00  0.725290330587823E+00 -0.664226790288428E+00  0.727013816549563E+00
 -0.595247138140016E+00  0.730353132665421E+00 -0.595247138140016E+00  0.730353132665421E+00 -0.666403601091873E+00  0.733184265819100E+00
 -0.598051372350699E+00  0.735469926066850E+00 -0.598051372350699E+00  0.735469926066850E+00 -0.668363468213771E+00  0.739416050137117E+00
 -0.600650469409186E+00  0.740638092477329E+00 -0.600650469409186E+00  0.740638092477329E+00 -0.670107914996303E+00  0.745705746117827E+00
 -0.603046220374077E+00  0.745854954048909E+00 -0.603046220374077E+00  0.745854954048909E+00 -0.671638464945207E+00  0.752049892786401E+00
 -0.605240408962844E+00  0.751117778489825E+00 -0.605240408962844E+00  0.751117778489825E+00 -0.672956644717252E+00  0.758444995692731E+00
 -0.607234814075869E+00  0.756423783895149E+00 -0.607234814075869E+00  0.756423783895149E+00 -0.674063986973005E+00  0.764887530825579E+00
 -0.609031212241999E+00  0.761770143335877E+00 -0.609031212241999E+00  0.761770143335877E+00 -0.674962033097131E+00  0.771373948341703E+00
 -0.610631379982648E+00  0.767153989222443E+00 -0.610631379982648E+00  0.767153989222443E+00 -0.675652335788720E+00  0.777900676123383E+00
 -0.612037096092257E+00  0.772572417457504E+00 -0.612037096092257E+00  0.772572417457504E+00 -0.676136461524317E+00  0.784464123176682E+00
 -0.613250143833496E+00  0.778022491391848E+00 -0.613250143833496E+00  0.778022491391848E+00 -0.676415992896486E+00  0.791060682881776E+00
 -0.614272313046189E+00  0.783501245596272E+00 -0.614272313046189E+00  0.783501245596272E+00 -0.676492530830830E+00  0.797686736105794E+00
 -0.615105402169377E+00  0.789005689461357E+00 -0.615105402169377E+00  0.789005689461357E+00 -0.676367696684475E+00  0.804338654187711E+00
 -0.615751220176356E+00  0.794532810636255E+00 -0.615751220176356E+00  0.794532810636255E+00 -0.676043134229069E+00  0.811012801804120E+00
 -0.616211588422858E+00  0.800079578316746E+00 -0.616211588422858E+00  0.800079578316746E+00 -0.675520511521341E+00  0.817705539723922E+00
 -0.616488342408834E+00  0.805642946392125E+00 -0.616488342408834E+00  0.805642946392125E+00 -0.674801522664316E+00  0.824413227459366E+00
 -0.616583333454573E+00  0.811219856459746E+00 -0.616583333454573E+00  0.811219856459746E+00 -0.673887889462219E+00  0.831132225820225E+00
 -0.616498430292049E+00  0.816807240715444E+00 -0.616498430292049E+00  0.816807240715444E+00 -0.672781362972098E+00  0.837858899377347E+00
 -0.616235520572611E+00  0.822402024727386E+00 -0.616235520572611E+00  0.822402024727386E+00 -0.671483724955160E+00  0.844589618841289E+00
 -0.615796512292252E+00  0.828001130100414E+00 -0.615796512292252E+00  0.828001130100414E+00 -0.669996789230744E+00  0.851320763361278E+00
 -0.615183335135807E+00  0.833601477037357E+00 -0.615183335135807E+00  0.833601477037357E+00 -0.668322402935835E+00  0.858048722749293E+00
 -0.614397941741538E+00  0.839199986803338E+00 -0.614397941741538E+00  0.839199986803338E+00 -0.666462447692928E+00  0.864769899633662E+00
 -0.613442308887647E+00  0.844793584098622E+00 -0.613442308887647E+00  0.844793584098622E+00 -0.664418840689020E+00  0.871480711546185E+00
 -0.612318438602284E+00  0.850379199345158E+00 -0.612318438602284E+00  0.850379199345158E+00 -0.662193535668412E+00  0.878177592946466E+00
 -0.611028359198714E+00  0.855953770891545E+00 -0.611028359198714E+00  0.855953770891545E+00 -0.659788523841962E+00  0.884856997186803E+00
 -0.609574126237286E+00  0.861514247140809E+00 -0.609574126237286E+00  0.861514247140809E+00 -0.657205834715355E+00  0.891515398420706E+00
 -0.607957823415918E+00  0.867057588605033E+00 -0.607957823415918E+00  0.867057588605033E+00 -0.654447536838860E+00  0.898149293457827E+00
 -0.606181563390780E+00  0.872580769890557E+00 -0.606181563390780E+00  0.872580769890557E+00 -0.651515738481019E+00  0.904755203567868E+00
 -0.604247488528908E+00  0.878080781617196E+00 -0.604247488528908E+00  0.878080781617196E+00 -0.648412588228617E+00  0.911329676235764E+00
 -0.602157771594440E+00  0.883554632274623E+00 -0.602157771594440E+00  0.883554632274623E+00 -0.645140275515214E+00  0.917869286870266E+00
 -0.599914616370188E+00  0.888999350018839E+00 -0.599914616370188E+00  0.888999350018839E+00 -0.641701031080464E+00  0.924370640467826E+00
 -0.597520258216227E+00  0.894411984411395E+00 -0.597520258216227E+00  0.894411984411395E+00 -0.638097127362384E+00  0.930830373233524E+00
 -0.594976964567193E+00  0.899789608103832E+00 -0.594976964567193E+00  0.899789608103832E+00 -0.634330878824660E+00  0.937245154160608E+00
 -0.592287035369929E+00  0.905129318469594E+00 -0.592287035369929E+00  0.905129318469594E+00 -0.630404642221028E+00  0.943611686570056E+00
 -0.589452803463141E+00  0.910428239185479E+00 -0.589452803463141E+00  0.910428239185479E+00 -0.626320816798700E+00  0.949926709611453E+00
 -0.586476634900657E+00  0.915683521764522E+00 -0.586476634900657E+00  0.915683521764522E+00 -0.622081844442767E+00  0.956186999726314E+00
 -0.583360929219897E+00  0.920892347042048E+00 -0.583360929219897E+00  0.920892347042048E+00 -0.617690209763416E+00  0.962389372074899E+00
 -0.580108119657116E+00  0.926051926616475E+00 -0.580108119657116E+00  0.926051926616475E+00 -0.613148440127807E+00  0.968530681927428E+00
 -0.576720673310966E+00  0.931159504246303E+00 -0.576720673310966E+00  0.931159504246303E+00 -0.608459105638340E+00  0.974607826020518E+00
 -0.573201091255878E+00  0.936212357204616E+00 -0.573201091255878E+00  0.936212357204616E+00 -0.603624819059044E+00  0.980617743879577E+00
 -0.569551908606774E+00  0.941207797592278E+00 -0.569551908606774E+00  0.941207797592278E+00 -0.598648235691748E+00  0.986557419107785E+00
 -0.565775694536554E+00  0.946143173610907E+00 -0.565775694536554E+00  0.946143173610907E+00 -0.593532053203655E+00  0.992423880642220E+00
 -0.561875052247799E+00  0.951015870796612E+00 -0.561875052247799E+00  0.951015870796612E+00 -0.588279011407907E+00  0.998214203977637E+00
 -0.557852618900105E+00  0.955823313215364E+00 -0.557852618900105E+00  0.955823313215364E+00 -0.582891891998675E+00  0.100392551235830E+01
 -0.553711065494415E+00  0.960562964620795E+00 -0.553711065494415E+00  0.960562964620795E+00 -0.577373518242282E+00  0.100955497793823E+01
 -0.549453096715728E+00  0.965232329575135E+00 -0.549453096715728E+00  0.965232329575135E+00 -0.571726754625825E+00  0.101509982291022E+01
 -0.545081450735495E+00  0.969828954533918E+00 -0.545081450735495E+00  0.969828954533918E+00 -0.565954506464730E+00  0.102055732060375E+01
 -0.540598898975029E+00  0.974350428895010E+00 -0.540598898975029E+00  0.974350428895010E+00 -0.560059719470638E+00  0.102592479655214E+01
 -0.536008245831202E+00  0.978794386012454E+00 -0.536008245831202E+00  0.978794386012454E+00 -0.554045379281002E+00  0.103119962952907E+01
 -0.531312328365691E+00  0.983158504175559E+00 -0.531312328365691E+00  0.983158504175559E+00 -0.547914510951720E+00  0.103637925255445E+01
 -0.526514015959018E+00  0.987440507553599E+00 -0.526514015959018E+00  0.987440507553599E+00 -0.541670178414137E+00  0.104146115386992E+01
 -0.521616209930587E+00  0.991638167106450E+00 -0.521616209930587E+00  0.991638167106450E+00 -0.535315483897687E+00  0.104644287788390E+01
 -0.516621843125938E+00  0.995749301461415E+00 -0.516621843125938E+00  0.995749301461415E+00 -0.528853567319458E+00  0.105132202608625E+01
 -0.511533879472363E+00  0.999771777756465E+00 -0.511533879472363E+00  0.999771777756465E+00 -0.522287605641893E+00  0.105609625793249E+01
 -0.506355313504066E+00  0.100370351245006E+01 -0.506355313504066E+00  0.100370351245006E+01 -0.515620812199883E+00  0.106076329169755E+01
 -0.501089169857991E+00  0.100754247209771E+01 -0.501089169857991E+00  0.100754247209771E+01 -0.508856435998415E+00  0.106532090529907E+01
 -0.495738502741438E+00  0.101128667409530E+01 -0.495738502741438E+00  0.101128667409530E+01 -0.501997760981981E+00  0.106976693708994E+01
 -0.490306395372574E+00  0.101493418738935E+01 -0.490306395372574E+00  0.101493418738935E+01 -0.495048105276897E+00  0.107409928662029E+01
 -0.484795959394917E+00  0.101848313315410E+01 -0.484795959394917E+00  0.101848313315410E+01 -0.488010820407674E+00  0.107831591536847E+01
 -0.479210334266867E+00  0.102193168543554E+01 -0.479210334266867E+00  0.102193168543554E+01 -0.480889290488585E+00  0.108241484744111E+01
 -0.473552686627335E+00  0.102527807176224E+01 -0.473552686627335E+00  0.102527807176224E+01 -0.473686931391527E+00  0.108639417024199E+01
 -0.467826209638503E+00  0.102852057372294E+01 -0.467826209638503E+00  0.102852057372294E+01 -0.466407189891282E+00  0.109025203510953E+01
 -0.462034122306750E+00  0.103165752751089E+01 -0.462034122306750E+00  0.103165752751089E+01 -0.459053542789272E+00  0.109398665792278E+01
 -0.456179668782740E+00  0.103468732443467E+01 -0.456179668782740E+00  0.103468732443467E+01 -0.451629496016870E+00  0.109759631967564E+01
 -0.450266117641676E+00  0.103760841139546E+01 -0.450266117641676E+00  0.103760841139546E+01 -0.444138583719342E+00  0.110107936701908E+01
 -0.444296761144701E+00  0.104041929133054E+01 -0.444296761144701E+00  0.104041929133054E+01 -0.436584367321468E+00  0.110443421277119E+01
 -0.438274914482411E+00  0.104311852362283E+01 -0.438274914482411E+00  0.104311852362283E+01 -0.428970434575878E+00  0.110765933639476E+01
 -0.432203915001448E+00  0.104570472447626E+01 -0.432203915001448E+00  0.104570472447626E+01 -0.421300398595155E+00  0.111075328444216E+01
 -0.426087121415106E+00  0.104817656725676E+01 -0.426087121415106E+00  0.104817656725676E+01 -0.413577896868705E+00  0.111371467096724E+01
 -0.419927912998886E+00  0.105053278279853E+01 -0.419927912998886E+00  0.105053278279853E+01 -0.405806590265433E+00  0.111654217790398E+01
 -0.413729688771932E+00  0.105277215967542E+01 -0.413729688771932E+00  0.105277215967542E+01 -0.397990162023222E+00  0.111923455541163E+01
 -0.407495866665242E+00  0.105489354443700E+01 -0.407495866665242E+00  0.105489354443700E+01 -0.390132316726220E+00  0.112179062218602E+01
 -0.401229882677564E+00  0.105689584180915E+01 -0.401229882677564E+00  0.105689584180915E+01 -0.382236779270922E+00  0.112420926573668E+01
 -0.394935190019860E+00  0.105877801485864E+01 -0.394935190019860E+00  0.105877801485864E+01 -0.374307293822063E+00  0.112648944262964E+01
 -0.388615258249209E+00  0.106053908512155E+01 -0.388615258249209E+00  0.106053908512155E+01 -0.366347622759263E+00  0.112863017869530E+01
 -0.382273572393023E+00  0.106217813269495E+01 -0.382273572393023E+00  0.106217813269495E+01 -0.358361545615441E+00  0.113063056920134E+01