 VARIABLES =  $x$  $\epsilon=10^{-1}$  $x$2  $\epsilon=10^{-2}$  $x$3  $\epsilon=10^{-3}$
 ZONE I=        1001 ,DATAPACKING=POINT
  0.994000000000000E+00  0.000000000000000E+00  0.994000000000000E+00  0.000000000000000E+00  0.994000000000000E+00  0.000000000000000E+00
  0.979274326573980E+00 -0.194246181262148E-01  0.979274326573980E+00 -0.194246181262148E-01  0.979274326573980E+00 -0.194246181262148E-01
  0.964493871594397E+00 -0.273032340661155E-01  0.964493871594397E+00 -0.273032340661155E-01  0.964493871594397E+00 -0.273032340661155E-01
  0.951349358034164E+00 -0.323250682911974E-01  0.951349358034164E+00 -0.323250682911974E-01  0.951349358034164E+00 -0.323250682911974E-01
  0.939183925378528E+00 -0.358601292014194E-01  0.939183925378528E+00 -0.358601292014194E-01  0.939183925378528E+00 -0.358601292014194E-01
  0.927673421768338E+00 -0.383900243719387E-01  0.927673421768338E+00 -0.383900243719387E-01  0.927673421768338E+00 -0.383900243719387E-01
  0.916634428609852E+00 -0.401471543758415E-01  0.916634428609852E+00 -0.401471543758415E-01  0.916634428609852E+00 -0.401471543758415E-01
  0.905951516569870E+00 -0.412638579857199E-01  0.905951516569870E+00 -0.412638579857199E-01  0.905951516569870E+00 -0.412638579857199E-01
  0.895546350739378E+00 -0.418236394812753E-01  0.895546350739378E+00 -0.418236394812753E-01  0.895546350739378E+00 -0.418236394812753E-01
  0.885362699451045E+00 -0.418829893132391E-01  0.885362699451045E+00 -0.418829893132391E-01  0.885362699451045E+00 -0.418829893132391E-01
  0.875358384709333E+00 -0.414820812988547E-01  0.875358384709333E+00 -0.414820812988547E-01  0.875358384709333E+00 -0.414820812988547E-01
  0.865500612982906E+00 -0.406505687795900E-01  0.865500612982906E+00 -0.406505687795900E-01  0.865500612982906E+00 -0.406505687795900E-01
  0.855763097788517E+00 -0.394109712027044E-01  0.855763097788517E+00 -0.394109712027044E-01  0.855763097788517E+00 -0.394109712027044E-01
  0.846124197785996E+00 -0.377807735082828E-01  0.846124197785996E+00 -0.377807735082828E-01  0.846124197785996E+00 -0.377807735082828E-01
  0.836565662356141E+00 -0.357737915861877E-01  0.836565662356141E+00 -0.357737915861877E-01  0.836565662356141E+00 -0.357737915861877E-01
  0.827071757069798E+00 -0.334010967008754E-01  0.827071757069798E+00 -0.334010967008754E-01  0.827071757069798E+00 -0.334010967008754E-01
  0.817628635688768E+00 -0.306716632264646E-01  0.817628635688768E+00 -0.306716632264646E-01  0.817628635688768E+00 -0.306716632264646E-01
  0.808223877242442E+00 -0.275928364793209E-01  0.808223877242442E+00 -0.275928364793209E-01  0.808223877242442E+00 -0.275928364793209E-01
  0.798846136631752E+00 -0.241706800428066E-01  0.798846136631752E+00 -0.241706800428066E-01  0.798846136631752E+00 -0.241706800428066E-01
  0.789484875126628E+00 -0.204102403506899E-01  0.789484875126628E+00 -0.204102403506899E-01  0.789484875126628E+00 -0.204102403506899E-01
  0.780130148222364E+00 -0.163157533048798E-01  0.780130148222364E+00 -0.163157533048798E-01  0.780130148222364E+00 -0.163157533048798E-01
  0.770772435404902E+00 -0.118908096412405E-01  0.770772435404902E+00 -0.118908096412405E-01  0.770772435404902E+00 -0.118908096412405E-01
  0.761402501019379E+00 -0.713849060964944E-02  0.761402501019379E+00 -0.713849060964944E-02  0.761402501019379E+00 -0.713849060964944E-02
  0.752011278556169E+00 -0.206148216469298E-02  0.752011278556169E+00 -0.206148216469298E-02  0.752011278556169E+00 -0.206148216469298E-02
  0.742589772812687E+00  0.333782639138445E-02  0.742589772812687E+00  0.333782639138445E-02  0.742589772812687E+00  0.333782639138445E-02
  0.733128975895648E+00  0.905725490992331E-02  0.733128975895648E+00  0.905725490992331E-02  0.733128975895648E+00  0.905725490992331E-02
  0.723619794110621E+00  0.150947527049050E-01  0.723619794110621E+00  0.150947527049050E-01  0.723619794110621E+00  0.150947527049050E-01
  0.714052983581518E+00  0.214483240852839E-01  0.714052983581518E+00  0.214483240852839E-01  0.714052983581518E+00  0.214483240852839E-01
  0.704419093043124E+00  0.281159570633519E-01  0.704419093043124E+00  0.281159570633519E-01  0.704419093043124E+00  0.281159570633519E-01
  0.694708412716217E+00  0.350955535814666E-01  0.694708412716217E+00  0.350955535814666E-01  0.694708412716217E+00  0.350955535814666E-01
  0.684910928549352E+00  0.423848598867752E-01  0.684910928549352E+00  0.423848598867752E-01  0.684910928549352E+00  0.423848598867752E-01
  0.675016281423506E+00  0.499813959003500E-01  0.675016281423506E+00  0.499813959003500E-01  0.675016281423506E+00  0.499813959003500E-01
  0.665013731186482E+00  0.578823825963954E-01  0.665013731186482E+00  0.578823825963954E-01  0.665013731186482E+00  0.578823825963954E-01
  0.654892125628403E+00  0.660846665462291E-01  0.654892125628403E+00  0.660846665462291E-01  0.654892125628403E+00  0.660846665462291E-01
  0.644639874738844E+00  0.745846409043484E-01  0.644639874738844E+00  0.745846409043484E-01  0.644639874738844E+00  0.745846409043484E-01
  0.634244930807966E+00  0.833781622317082E-01  0.634244930807966E+00  0.833781622317082E-01  0.634244930807966E+00  0.833781622317082E-01
  0.623694775153926E+00  0.924604626747822E-01  0.623694775153926E+00  0.924604626747822E-01  0.623694775153926E+00  0.924604626747822E-01
  0.612976412479914E+00  0.101826057157998E+00  0.612976412479914E+00  0.101826057157998E+00  0.612976412479914E+00  0.101826057157998E+00
  0.602076374087548E+00  0.111468645411531E+00  0.602076374087548E+00  0.111468645411531E+00  0.602076374087548E+00  0.111468645411531E+00
  0.590980731397603E+00  0.121381008856231E+00  0.590980731397603E+00  0.121381008856231E+00  0.590980731397603E+00  0.121381008856231E+00
  0.579675121450283E+00  0.131554902612814E+00  0.579675121450283E+00  0.131554902612814E+00  0.579675121450283E+00  0.131554902612814E+00
  0.568144786268279E+00  0.141980943203649E+00  0.568144786268279E+00  0.141980943203649E+00  0.568144786268279E+00  0.141980943203649E+00
  0.556374628155863E+00  0.152648492882423E+00  0.556374628155863E+00  0.152648492882423E+00  0.556374628155863E+00  0.152648492882423E+00
  0.544349283161106E+00  0.163545541968480E+00  0.544349283161106E+00  0.163545541968480E+00  0.544349283161106E+00  0.163545541968480E+00
  0.532053215025670E+00  0.174658591085454E+00  0.532053215025670E+00  0.174658591085454E+00  0.532053215025670E+00  0.174658591085454E+00
  0.519470831962002E+00  0.185972535810858E+00  0.519470831962002E+00  0.185972535810858E+00  0.519470831962002E+00  0.185972535810858E+00
  0.506586628499740E+00  0.197470556931943E+00  0.506586628499740E+00  0.197470556931943E+00  0.506586628499740E+00  0.197470556931943E+00
  0.493385354395384E+00  0.209134020262336E+00  0.493385354395384E+00  0.209134020262336E+00  0.493385354395384E+00  0.209134020262336E+00
  0.479852212161093E+00  0.220942390781684E+00  0.479852212161093E+00  0.220942390781684E+00  0.479852212161093E+00  0.220942390781684E+00
  0.465973084098033E+00  0.232873166680264E+00  0.465973084098033E+00  0.232873166680264E+00  0.465973084098033E+00  0.232873166680264E+00
  0.451734788777131E+00  0.244901839668500E+00  0.451734788777131E+00  0.244901839668500E+00  0.451734788777131E+00  0.244901839668500E+00
  0.437125365664099E+00  0.257001888574182E+00  0.437125365664099E+00  0.257001888574182E+00  0.437125365664099E+00  0.257001888574182E+00
  0.422134385020707E+00  0.269144813704302E+00  0.422134385020707E+00  0.269144813704302E+00  0.422134385020707E+00  0.269144813704302E+00
  0.406753278340361E+00  0.281300219581908E+00  0.406753278340361E+00  0.281300219581908E+00  0.406753278340361E+00  0.281300219581908E+00
  0.390975682439149E+00  0.293435953357050E+00  0.390975682439149E+00  0.293435953357050E+00  0.390975682439149E+00  0.293435953357050E+00
  0.374797788015384E+00  0.305518305308886E+00  0.374797788015384E+00  0.305518305308886E+00  0.374797788015384E+00  0.305518305308886E+00
  0.358218681156695E+00  0.317512276292297E+00  0.358218681156695E+00  0.317512276292297E+00  0.358218681156695E+00  0.317512276292297E+00
  0.341240664114738E+00  0.329381914662271E+00  0.341240664114738E+00  0.329381914662271E+00  0.341240664114738E+00  0.329381914662271E+00
  0.323869539933304E+00  0.341090722119510E+00  0.323869539933304E+00  0.341090722119510E+00  0.323869539933304E+00  0.341090722119510E+00
  0.306114844486668E+00  0.352602124134706E+00  0.306114844486668E+00  0.352602124134706E+00  0.306114844486668E+00  0.352602124134706E+00
  0.287990009442392E+00  0.363879996306008E+00  0.287990009442392E+00  0.363879996306008E+00  0.287990009442392E+00  0.363879996306008E+00
  0.269512440845293E+00  0.374889233478205E+00  0.269512440845293E+00  0.374889233478205E+00  0.269512440845293E+00  0.374889233478205E+00
  0.250703500574799E+00  0.385596344099916E+00  0.250703500574799E+00  0.385596344099916E+00  0.250703500574799E+00  0.385596344099916E+00
  0.231588381865705E+00  0.395970048584141E+00  0.231588381865705E+00  0.395970048584141E+00  0.231588381865705E+00  0.395970048584141E+00
  0.212195875238606E+00  0.405981857849688E+00  0.212195875238606E+00  0.405981857849688E+00  0.212195875238606E+00  0.405981857849688E+00
  0.192558027213379E+00  0.415606607180465E+00  0.192558027213379E+00  0.415606607180465E+00  0.192558027213379E+00  0.415606607180465E+00
  0.172709700567771E+00  0.424822921335732E+00  0.172709700567771E+00  0.424822921335732E+00  0.172709700567771E+00  0.424822921335732E+00
  0.152688051039126E+00  0.433613589566985E+00  0.152688051039126E+00  0.433613589566985E+00  0.152688051039126E+00  0.433613589566985E+00
  0.132531940615400E+00  0.441965833699449E+00  0.132531940615400E+00  0.441965833699449E+00  0.132531940615400E+00  0.441965833699449E+00
  0.112281311362877E+00  0.449871458339156E+00  0.112281311362877E+00  0.449871458339156E+00  0.112281311362877E+00  0.449871458339156E+00
  0.919765456991380E-01  0.457326879005407E+00  0.919765456991380E-01  0.457326879005407E+00  0.919765456991380E-01  0.457326879005407E+00
  0.716578389749137E-01  0.464333030895492E+00  0.716578389749137E-01  0.464333030895492E+00  0.716578389749137E-01  0.464333030895492E+00
  0.513646082605040E-01  0.470895167394448E+00  0.513646082605040E-01  0.470895167394448E+00  0.513646082605040E-01  0.470895167394448E+00
  0.311349576487697E-01  0.477022562774012E+00  0.311349576487697E-01  0.477022562774012E+00  0.311349576487697E-01  0.477022562774012E+00
  0.110052156586124E-01  0.482728137379916E+00  0.110052156586124E-01  0.482728137379916E+00  0.110052156586124E-01  0.482728137379916E+00
 -0.899044499811065E-02  0.488028025793353E+00 -0.899044499811065E-02  0.488028025793353E+00 -0.899044499811065E-02  0.488028025793353E+00
 -0.288203003908023E-01  0.492941108988497E+00 -0.288203003908023E-01  0.492941108988497E+00 -0.288203003908023E-01  0.492941108988497E+00
 -0.484552811351264E-01  0.497488530586648E+00 -0.484552811351264E-01  0.497488530586648E+00 -0.484552811351264E-01  0.497488530586648E+00
 -0.678690951767590E-01  0.501693215241925E+00 -0.678690951767590E-01  0.501693215241925E+00 -0.678690951767590E-01  0.501693215241925E+00
 -0.870382750323492E-01  0.505579404354141E+00 -0.870382750323492E-01  0.505579404354141E+00 -0.870382750323492E-01  0.505579404354141E+00
 -0.105942159104944E+00  0.509172221062448E+00 -0.105942159104944E+00  0.509172221062448E+00 -0.105942159104944E+00  0.509172221062448E+00
 -0.124562817887080E+00  0.512497273156216E+00 -0.124562817887080E+00  0.512497273156216E+00 -0.124562817887080E+00  0.512497273156216E+00
 -0.142884936206034E+00  0.515580299405312E+00 -0.142884936206034E+00  0.515580299405312E+00 -0.142884936206034E+00  0.515580299405312E+00
 -0.160895662325160E+00  0.518446862039055E+00 -0.160895662325160E+00  0.518446862039055E+00 -0.160895662325160E+00  0.518446862039055E+00
 -0.178584433879509E+00  0.521122085792942E+00 -0.178584433879509E+00  0.521122085792942E+00 -0.178584433879509E+00  0.521122085792942E+00
 -0.195942789470972E+00  0.523630442131575E+00 -0.195942789470972E+00  0.523630442131575E+00 -0.195942789470972E+00  0.523630442131575E+00
 -0.212964173431962E+00  0.525995575931585E+00 -0.212964173431962E+00  0.525995575931585E+00 -0.212964173431962E+00  0.525995575931585E+00
 -0.229643739910195E+00  0.528240171023456E+00 -0.229643739910195E+00  0.528240171023456E+00 -0.229643739910195E+00  0.528240171023456E+00
 -0.245978161120683E+00  0.530385850480479E+00 -0.245978161120683E+00  0.530385850480479E+00 -0.245978161120683E+00  0.530385850480479E+00
 -0.261965443414826E+00  0.532453107334153E+00 -0.261965443414826E+00  0.532453107334153E+00 -0.261965443414826E+00  0.532453107334153E+00
 -0.277604753765060E+00  0.534461261416708E+00 -0.277604753765060E+00  0.534461261416708E+00 -0.277604753765060E+00  0.534461261416708E+00
 -0.292896258371566E+00  0.536428438218316E+00 -0.292896258371566E+00  0.536428438218316E+00 -0.292896258371566E+00  0.536428438218316E+00
 -0.307840974365083E+00  0.538371565943397E+00 -0.307840974365083E+00  0.538371565943397E+00 -0.307840974365083E+00  0.538371565943397E+00
 -0.322440634997373E+00  0.540306387312216E+00 -0.322440634997373E+00  0.540306387312216E+00 -0.322440634997373E+00  0.540306387312216E+00
 -0.336697568262851E+00  0.542247483045762E+00 -0.336697568262851E+00  0.542247483045762E+00 -0.336697568262851E+00  0.542247483045762E+00
 -0.350614588563248E+00  0.544208304367931E+00 -0.350614588563248E+00  0.544208304367931E+00 -0.350614588563248E+00  0.544208304367931E+00
 -0.364194900793045E+00  0.546201212241246E+00 -0.364194900793045E+00  0.546201212241246E+00 -0.364194900793045E+00  0.546201212241246E+00
 -0.377442016068834E+00  0.548237521409074E+00 -0.377442016068834E+00  0.548237521409074E+00 -0.377442016068834E+00  0.548237521409074E+00
 -0.390359678234284E+00  0.550327547641749E+00 -0.390359678234284E+00  0.550327547641749E+00 -0.390359678234284E+00  0.550327547641749E+00
 -0.402951800229730E+00  0.552480656872911E+00 -0.402951800229730E+00  0.552480656872911E+00 -0.402951800229730E+00  0.552480656872911E+00
 -0.415222409409371E+00  0.554705315165320E+00 -0.415222409409371E+00  0.554705315165320E+00 -0.415222409409371E+00  0.554705315165320E+00
 -0.427175600909536E+00  0.557009138663458E+00 -0.427175600909536E+00  0.557009138663458E+00 -0.427175600909536E+00  0.557009138663458E+00
 -0.438815498210545E+00  0.559398942875850E+00 -0.438815498210545E+00  0.559398942875850E+00 -0.438815498210545E+00  0.559398942875850E+00
 -0.450146220085652E+00  0.561880790786042E+00 -0.450146220085652E+00  0.561880790786042E+00 -0.450146220085652E+00  0.561880790786042E+00
 -0.461171853188814E+00  0.564460039420911E+00 -0.461171853188814E+00  0.564460039420911E+00 -0.461171853188814E+00  0.564460039420911E+00
 -0.471896429594537E+00  0.567141384611613E+00 -0.471896429594537E+00  0.567141384611613E+00 -0.471896429594537E+00  0.567141384611613E+00
 -0.482323908665316E+00  0.569928903769225E+00 -0.482323908665316E+00  0.569928903769225E+00 -0.482323908665316E+00  0.569928903769225E+00
 -0.492458162683118E+00  0.572826096566807E+00 -0.492458162683118E+00  0.572826096566807E+00 -0.492458162683118E+00  0.572826096566807E+00
 -0.502302965739665E+00  0.575835923475025E+00 -0.502302965739665E+00  0.575835923475025E+00 -0.502302965739665E+00  0.575835923475025E+00
 -0.511861985435168E+00  0.578960842141719E+00 -0.511861985435168E+00  0.578960842141719E+00 -0.511861985435168E+00  0.578960842141719E+00
 -0.521138776985994E+00  0.582202841639212E+00 -0.521138776985994E+00  0.582202841639212E+00 -0.521138776985994E+00  0.582202841639212E+00
 -0.530136779388496E+00  0.585563474628285E+00 -0.530136779388496E+00  0.585563474628285E+00 -0.530136779388496E+00  0.585563474628285E+00
 -0.538859313328666E+00  0.589043887506209E+00 -0.538859313328666E+00  0.589043887506209E+00 -0.538859313328666E+00  0.589043887506209E+00
 -0.547309580565611E+00  0.592644848619292E+00 -0.547309580565611E+00  0.592644848619292E+00 -0.547309580565611E+00  0.592644848619292E+00
 -0.555490664551248E+00  0.596366774629155E+00 -0.555490664551248E+00  0.596366774629155E+00 -0.555490664551248E+00  0.596366774629155E+00
 -0.563405532079263E+00  0.600209755127206E+00 -0.563405532079263E+00  0.600209755127206E+00 -0.563405532079263E+00  0.600209755127206E+00
 -0.571057035783670E+00  0.604173575594447E+00 -0.571057035783670E+00  0.604173575594447E+00 -0.571057035783670E+00  0.604173575594447E+00
 -0.578447917331370E+00  0.608257738804221E+00 -0.578447917331370E+00  0.608257738804221E+00 -0.578447917331370E+00  0.608257738804221E+00
 -0.585580811174387E+00  0.612461484764463E+00 -0.585580811174387E+00  0.612461484764463E+00 -0.585580811174387E+00  0.612461484764463E+00
 -0.592458248746135E+00  0.616783809293756E+00 -0.592458248746135E+00  0.616783809293756E+00 -0.592458248746135E+00  0.616783809293756E+00
 -0.599082663002431E+00  0.621223481322366E+00 -0.599082663002431E+00  0.621223481322366E+00 -0.599082663002431E+00  0.621223481322366E+00
 -0.605456393222292E+00  0.625779059005723E+00 -0.605456393222292E+00  0.625779059005723E+00 -0.605456393222292E+00  0.625779059005723E+00
 -0.611581689996031E+00  0.630448904733658E+00 -0.611581689996031E+00  0.630448904733658E+00 -0.611581689996031E+00  0.630448904733658E+00
 -0.617460720339041E+00  0.635231199114379E+00 -0.617460720339041E+00  0.635231199114379E+00 -0.617460720339041E+00  0.635231199114379E+00
 -0.623095572879100E+00  0.640123954007666E+00 -0.623095572879100E+00  0.640123954007666E+00 -0.623095572879100E+00  0.640123954007666E+00
 -0.628488263073199E+00  0.645125024677283E+00 -0.628488263073199E+00  0.645125024677283E+00 -0.628488263073199E+00  0.645125024677283E+00
 -0.633640738417016E+00  0.650232121128166E+00 -0.633640738417016E+00  0.650232121128166E+00 -0.633640738417016E+00  0.650232121128166E+00
 -0.638554883616234E+00  0.655442818689631E+00 -0.638554883616234E+00  0.655442818689631E+00 -0.638554883616234E+00  0.655442818689631E+00
 -0.643232525694211E+00  0.660754567901644E+00 -0.643232525694211E+00  0.660754567901644E+00 -0.643232525694211E+00  0.660754567901644E+00
 -0.647675439015059E+00  0.666164703757236E+00 -0.647675439015059E+00  0.666164703757236E+00 -0.647675439015059E+00  0.666164703757236E+00
 -0.651885350205036E+00  0.671670454350287E+00 -0.651885350205036E+00  0.671670454350287E+00 -0.651885350205036E+00  0.671670454350287E+00
 -0.655863942958586E+00  0.677268948974352E+00 -0.655863942958586E+00  0.677268948974352E+00 -0.655863942958586E+00  0.677268948974352E+00
 -0.659612862718143E+00  0.682957225714768E+00 -0.659612862718143E+00  0.682957225714768E+00 -0.659612862718143E+00  0.682957225714768E+00
 -0.663133721219292E+00  0.688732238573110E+00 -0.663133721219292E+00  0.688732238573110E+00 -0.663133721219292E+00  0.688732238573110E+00
 -0.666428100894972E+00  0.694590864160081E+00 -0.666428100894972E+00  0.694590864160081E+00 -0.666428100894972E+00  0.694590864160081E+00
 -0.669497559134121E+00  0.700529907990134E+00 -0.669497559134121E+00  0.700529907990134E+00 -0.669497559134121E+00  0.700529907990134E+00
 -0.672343632391707E+00  0.706546110408523E+00 -0.672343632391707E+00  0.706546110408523E+00 -0.672343632391707E+00  0.706546110408523E+00
 -0.674967840148292E+00  0.712636152179096E+00 -0.674967840148292E+00  0.712636152179096E+00 -0.674967840148292E+00  0.712636152179096E+00
 -0.677371688718377E+00  0.718796659758868E+00 -0.677371688718377E+00  0.718796659758868E+00 -0.677371688718377E+00  0.718796659758868E+00
 -0.679556674907616E+00  0.725024210283385E+00 -0.679556674907616E+00  0.725024210283385E+00 -0.679556674907616E+00  0.725024210283385E+00
 -0.681524289519734E+00  0.731315336284936E+00 -0.681524289519734E+00  0.731315336284936E+00 -0.681524289519734E+00  0.731315336284936E+00
 -0.683276020714582E+00  0.737666530163919E+00 -0.683276020714582E+00  0.737666530163919E+00 -0.683276020714582E+00  0.737666530163919E+00
 -0.684813357219247E+00  0.744074248432036E+00 -0.684813357219247E+00  0.744074248432036E+00 -0.684813357219247E+00  0.744074248432036E+00
 -0.686137791394529E+00  0.750534915744446E+00 -0.686137791394529E+00  0.750534915744446E+00 -0.686137791394529E+00  0.750534915744446E+00
 -0.687250822159423E+00  0.757044928736674E+00 -0.687250822159423E+00  0.757044928736674E+00 -0.687250822159423E+00  0.757044928736674E+00
 -0.688153957776472E+00  0.763600659680717E+00 -0.688153957776472E+00  0.763600659680717E+00 -0.688153957776472E+00  0.763600659680717E+00
 -0.688848718501064E+00  0.770198459973679E+00 -0.688848718501064E+00  0.770198459973679E+00 -0.688848718501064E+00  0.770198459973679E+00
 -0.689336639097868E+00  0.776834663471111E+00 -0.689336639097868E+00  0.776834663471111E+00 -0.689336639097868E+00  0.776834663471111E+00
 -0.689619271227709E+00  0.783505589676277E+00 -0.689619271227709E+00  0.783505589676277E+00 -0.689619271227709E+00  0.783505589676277E+00
 -0.689698185708253E+00  0.790207546795626E+00 -0.689698185708253E+00  0.790207546795626E+00 -0.689698185708253E+00  0.790207546795626E+00
 -0.689574974651882E+00  0.796936834669887E+00 -0.689574974651882E+00  0.796936834669887E+00 -0.689574974651882E+00  0.796936834669887E+00
 -0.689251253484173E+00  0.803689747589456E+00 -0.689251253484173E+00  0.803689747589456E+00 -0.689251253484173E+00  0.803689747589456E+00
 -0.688728662846373E+00  0.810462577001981E+00 -0.688728662846373E+00  0.810462577001981E+00 -0.688728662846373E+00  0.810462577001981E+00
 -0.688008870385221E+00  0.817251614119436E+00 -0.688008870385221E+00  0.817251614119436E+00 -0.688008870385221E+00  0.817251614119436E+00
 -0.687093572433454E+00  0.824053152431319E+00 -0.687093572433454E+00  0.824053152431319E+00 -0.687093572433454E+00  0.824053152431319E+00
 -0.685984495584265E+00  0.830863490130088E+00 -0.685984495584265E+00  0.830863490130088E+00 -0.685984495584265E+00  0.830863490130088E+00
 -0.684683398162907E+00  0.837678932454409E+00 -0.684683398162907E+00  0.837678932454409E+00 -0.684683398162907E+00  0.837678932454409E+00
 -0.683192071598608E+00  0.844495793955328E+00 -0.683192071598608E+00  0.844495793955328E+00 -0.683192071598608E+00  0.844495793955328E+00
 -0.681512341699852E+00  0.851310400690033E+00 -0.681512341699852E+00  0.851310400690033E+00 -0.681512341699852E+00  0.851310400690033E+00
 -0.679646069836023E+00  0.858119092347475E+00 -0.679646069836023E+00  0.858119092347475E+00 -0.679646069836023E+00  0.858119092347475E+00
 -0.677595154028338E+00  0.864918224309762E+00 -0.677595154028338E+00  0.864918224309762E+00 -0.677595154028338E+00  0.864918224309762E+00
 -0.675361529952887E+00  0.871704169652865E+00 -0.675361529952887E+00  0.871704169652865E+00 -0.675361529952887E+00  0.871704169652865E+00
 -0.672947171858558E+00  0.878473321089898E+00 -0.672947171858558E+00  0.878473321089898E+00 -0.672947171858558E+00  0.878473321089898E+00
 -0.670354093402514E+00  0.885222092859923E+00 -0.670354093402514E+00  0.885222092859923E+00 -0.670354093402514E+00  0.885222092859923E+00
 -0.667584348405816E+00  0.891946922564981E+00 -0.667584348405816E+00  0.891946922564981E+00 -0.667584348405816E+00  0.891946922564981E+00
 -0.664640031531723E+00  0.898644272957792E+00 -0.664640031531723E+00  0.898644272957792E+00 -0.664640031531723E+00  0.898644272957792E+00
 -0.661523278889098E+00  0.905310633682351E+00 -0.661523278889098E+00  0.905310633682351E+00 -0.661523278889098E+00  0.905310633682351E+00
 -0.658236268563302E+00  0.911942522969438E+00 -0.658236268563302E+00  0.911942522969438E+00 -0.658236268563302E+00  0.911942522969438E+00
 -0.654781221076865E+00  0.918536489288878E+00 -0.654781221076865E+00  0.918536489288878E+00 -0.654781221076865E+00  0.918536489288878E+00
 -0.651160399782152E+00  0.925089112960182E+00 -0.651160399782152E+00  0.925089112960182E+00 -0.651160399782152E+00  0.925089112960182E+00
 -0.647376111188193E+00  0.931597007723086E+00 -0.647376111188193E+00  0.931597007723086E+00 -0.647376111188193E+00  0.931597007723086E+00
 -0.643430705223757E+00  0.938056822269314E+00 -0.643430705223757E+00  0.938056822269314E+00 -0.643430705223757E+00  0.938056822269314E+00
 -0.639326575438696E+00  0.944465241736771E+00 -0.639326575438696E+00  0.944465241736771E+00 -0.639326575438696E+00  0.944465241736771E+00
 -0.635066159145540E+00  0.950818989167257E+00 -0.635066159145540E+00  0.950818989167257E+00 -0.635066159145540E+00  0.950818989167257E+00
 -0.630651937503225E+00  0.957114826928649E+00 -0.630651937503225E+00  0.957114826928649E+00 -0.630651937503225E+00  0.957114826928649E+00
 -0.626086435544823E+00  0.963349558102422E+00 -0.626086435544823E+00  0.963349558102422E+00 -0.626086435544823E+00  0.963349558102422E+00
 -0.621372222151071E+00  0.969520027837261E+00 -0.621372222151071E+00  0.969520027837261E+00 -0.621372222151071E+00  0.969520027837261E+00
 -0.616511909971432E+00  0.975623124669430E+00 -0.616511909971432E+00  0.975623124669430E+00 -0.616511909971432E+00  0.975623124669430E+00
 -0.611508155294403E+00  0.981655781810487E+00 -0.611508155294403E+00  0.981655781810487E+00 -0.611508155294403E+00  0.981655781810487E+00
 -0.606363657868708E+00  0.987614978402850E+00 -0.606363657868708E+00  0.987614978402850E+00 -0.606363657868708E+00  0.987614978402850E+00
 -0.601081160676993E+00  0.993497740743656E+00 -0.601081160676993E+00  0.993497740743656E+00 -0.601081160676993E+00  0.993497740743656E+00
 -0.595663449663579E+00  0.999301143477278E+00 -0.595663449663579E+00  0.999301143477278E+00 -0.595663449663579E+00  0.999301143477278E+00
 -0.590113353417811E+00  0.100502231075682E+01 -0.590113353417811E+00  0.100502231075682E+01 -0.590113353417811E+00  0.100502231075682E+01
 -0.584433742814477E+00  0.101065841737483E+01 -0.584433742814477E+00  0.101065841737483E+01 -0.584433742814477E+00  0.101065841737483E+01
 -0.578627530612767E+00  0.101620668986348E+01 -0.578627530612767E+00  0.101620668986348E+01 -0.578627530612767E+00  0.101620668986348E+01
 -0.572697671015176E+00  0.102166440756436E+01 -0.572697671015176E+00  0.102166440756436E+01 -0.572697671015176E+00  0.102166440756436E+01
 -0.566647159187747E+00  0.102702890366788E+01 -0.566647159187747E+00  0.102702890366788E+01 -0.566647159187747E+00  0.102702890366788E+01
 -0.560479030743010E+00  0.103229756622265E+01 -0.560479030743010E+00  0.103229756622265E+01 -0.560479030743010E+00  0.103229756622265E+01
 -0.554196361186944E+00  0.103746783911454E+01 -0.554196361186944E+00  0.103746783911454E+01 -0.554196361186944E+00  0.103746783911454E+01
 -0.547802265331270E+00  0.104253722301570E+01 -0.547802265331270E+00  0.104253722301570E+01 -0.547802265331270E+00  0.104253722301570E+01
 -0.541299896672343E+00  0.104750327630332E+01 -0.541299896672343E+00  0.104750327630332E+01 -0.541299896672343E+00  0.104750327630332E+01
 -0.534692446737909E+00  0.105236361594828E+01 -0.534692446737909E+00  0.105236361594828E+01 -0.534692446737909E+00  0.105236361594828E+01
 -0.527983144402947E+00  0.105711591837337E+01 -0.527983144402947E+00  0.105711591837337E+01 -0.527983144402947E+00  0.105711591837337E+01
 -0.521175255175814E+00  0.106175792028124E+01 -0.521175255175814E+00  0.106175792028124E+01 -0.521175255175814E+00  0.106175792028124E+01
 -0.514272080455882E+00  0.106628741945181E+01 -0.514272080455882E+00  0.106628741945181E+01 -0.514272080455882E+00  0.106628741945181E+01
 -0.507276956763840E+00  0.107070227550893E+01 -0.507276956763840E+00  0.107070227550893E+01 -0.507276956763840E+00  0.107070227550893E+01
 -0.500193254945811E+00  0.107500041065637E+01 -0.500193254945811E+00  0.107500041065637E+01 -0.500193254945811E+00  0.107500041065637E+01
 -0.493024379352435E+00  0.107917981038275E+01 -0.493024379352435E+00  0.107917981038275E+01 -0.493024379352435E+00  0.107917981038275E+01
 -0.485773766994029E+00  0.108323852413526E+01 -0.485773766994029E+00  0.108323852413526E+01 -0.485773766994029E+00  0.108323852413526E+01
 -0.478444886672944E+00  0.108717466596205E+01 -0.478444886672944E+00  0.108717466596205E+01 -0.478444886672944E+00  0.108717466596205E+01
 -0.471041238094210E+00  0.109098641512302E+01 -0.471041238094210E+00  0.109098641512302E+01 -0.471041238094210E+00  0.109098641512302E+01
 -0.463566350955551E+00  0.109467201666866E+01 -0.463566350955551E+00  0.109467201666866E+01 -0.463566350955551E+00  0.109467201666866E+01
 -0.456023784017852E+00  0.109822978198695E+01 -0.456023784017852E+00  0.109822978198695E+01 -0.456023784017852E+00  0.109822978198695E+01
 -0.448417124157134E+00  0.110165808931778E+01 -0.448417124157134E+00  0.110165808931778E+01 -0.448417124157134E+00  0.110165808931778E+01
 -0.440749985399085E+00  0.110495538423488E+01 -0.440749985399085E+00  0.110495538423488E+01 -0.440749985399085E+00  0.110495538423488E+01
 -0.433026007937196E+00  0.110812018009472E+01 -0.433026007937196E+00  0.110812018009472E+01 -0.433026007937196E+00  0.110812018009472E+01
 -0.425248857135534E+00  0.111115105845232E+01 -0.425248857135534E+00  0.111115105845232E+01 -0.425248857135534E+00  0.111115105845232E+01
 -0.417422222517181E+00  0.111404666944358E+01 -0.417422222517181E+00  0.111404666944358E+01 -0.417422222517181E+00  0.111404666944358E+01
 -0.409549816739344E+00  0.111680573213374E+01 -0.409549816739344E+00  0.111680573213374E+01 -0.409549816739344E+00  0.111680573213374E+01
 -0.401635374556165E+00  0.111942703483182E+01 -0.401635374556165E+00  0.111942703483182E+01 -0.401635374556165E+00  0.111942703483182E+01
 -0.393682651770221E+00  0.112190943537054E+01 -0.393682651770221E+00  0.112190943537054E+01 -0.393682651770221E+00  0.112190943537054E+01
 -0.385695424173723E+00  0.112425186135154E+01 -0.385695424173723E+00  0.112425186135154E+01 -0.385695424173723E+00  0.112425186135154E+01
 -0.377677486480397E+00  0.112645331035540E+01 -0.377677486480397E+00  0.112645331035540E+01 -0.377677486480397E+00  0.112645331035540E+01
 -0.369632651249036E+00  0.112851285011627E+01 -0.369632651249036E+00  0.112851285011627E+01 -0.369632651249036E+00  0.112851285011627E+01