 VARIABLES =  $x$  $\epsilon=10^{-1}$  $x$2  $\epsilon=10^{-2}$  $x$3  $\epsilon=10^{-3}$
 ZONE I=        1001 ,DATAPACKING=POINT
  0.994000000000000E+00  0.000000000000000E+00  0.994000000000000E+00  0.000000000000000E+00  0.994000000000000E+00  0.000000000000000E+00
  0.979274326573980E+00 -0.194246181262139E-01  0.979274326573980E+00 -0.194246181262139E-01  0.979274326573980E+00 -0.194246181262139E-01
  0.964493871594399E+00 -0.273032340661131E-01  0.964493871594399E+00 -0.273032340661131E-01  0.964493871594399E+00 -0.273032340661131E-01
  0.951349358034166E+00 -0.323250682911931E-01  0.951349358034166E+00 -0.323250682911931E-01  0.951349358034166E+00 -0.323250682911931E-01
  0.939183925378532E+00 -0.358601292014132E-01  0.939183925378532E+00 -0.358601292014132E-01  0.939183925378532E+00 -0.358601292014132E-01
  0.927673421768345E+00 -0.383900243719305E-01  0.927673421768345E+00 -0.383900243719305E-01  0.927673421768345E+00 -0.383900243719305E-01
  0.916634428609861E+00 -0.401471543758313E-01  0.916634428609861E+00 -0.401471543758313E-01  0.916634428609861E+00 -0.401471543758313E-01
  0.905951516569881E+00 -0.412638579857077E-01  0.905951516569881E+00 -0.412638579857077E-01  0.905951516569881E+00 -0.412638579857077E-01
  0.895546350739391E+00 -0.418236394812611E-01  0.895546350739391E+00 -0.418236394812611E-01  0.895546350739391E+00 -0.418236394812611E-01
  0.885362699451060E+00 -0.418829893132230E-01  0.885362699451060E+00 -0.418829893132230E-01  0.885362699451060E+00 -0.418829893132230E-01
  0.875358384709351E+00 -0.414820812988367E-01  0.875358384709351E+00 -0.414820812988367E-01  0.875358384709351E+00 -0.414820812988367E-01
  0.865500612982927E+00 -0.406505687795703E-01  0.865500612982927E+00 -0.406505687795703E-01  0.865500612982927E+00 -0.406505687795703E-01
  0.855763097788541E+00 -0.394109712026830E-01  0.855763097788541E+00 -0.394109712026830E-01  0.855763097788541E+00 -0.394109712026830E-01
  0.846124197786023E+00 -0.377807735082597E-01  0.846124197786023E+00 -0.377807735082597E-01  0.846124197786023E+00 -0.377807735082597E-01
  0.836565662356171E+00 -0.357737915861632E-01  0.836565662356171E+00 -0.357737915861632E-01  0.836565662356171E+00 -0.357737915861632E-01
  0.827071757069831E+00 -0.334010967008496E-01  0.827071757069831E+00 -0.334010967008496E-01  0.827071757069831E+00 -0.334010967008496E-01
  0.817628635688804E+00 -0.306716632264376E-01  0.817628635688804E+00 -0.306716632264376E-01  0.817628635688804E+00 -0.306716632264376E-01
  0.808223877242482E+00 -0.275928364792928E-01  0.808223877242482E+00 -0.275928364792928E-01  0.808223877242482E+00 -0.275928364792928E-01
  0.798846136631797E+00 -0.241706800427776E-01  0.798846136631797E+00 -0.241706800427776E-01  0.798846136631797E+00 -0.241706800427776E-01
  0.789484875126677E+00 -0.204102403506602E-01  0.789484875126677E+00 -0.204102403506602E-01  0.789484875126677E+00 -0.204102403506602E-01
  0.780130148222417E+00 -0.163157533048495E-01  0.780130148222417E+00 -0.163157533048495E-01  0.780130148222417E+00 -0.163157533048495E-01
  0.770772435404959E+00 -0.118908096412097E-01  0.770772435404959E+00 -0.118908096412097E-01  0.770772435404959E+00 -0.118908096412097E-01
  0.761402501019441E+00 -0.713849060961838E-02  0.761402501019441E+00 -0.713849060961838E-02  0.761402501019441E+00 -0.713849060961838E-02
  0.752011278556237E+00 -0.206148216466182E-02  0.752011278556237E+00 -0.206148216466182E-02  0.752011278556237E+00 -0.206148216466182E-02
  0.742589772812759E+00  0.333782639141552E-02  0.742589772812759E+00  0.333782639141552E-02  0.742589772812759E+00  0.333782639141552E-02
  0.733128975895725E+00  0.905725490995410E-02  0.733128975895725E+00  0.905725490995410E-02  0.733128975895725E+00  0.905725490995410E-02
  0.723619794110702E+00  0.150947527049353E-01  0.723619794110702E+00  0.150947527049353E-01  0.723619794110702E+00  0.150947527049353E-01
  0.714052983581604E+00  0.214483240853135E-01  0.714052983581604E+00  0.214483240853135E-01  0.714052983581604E+00  0.214483240853135E-01
  0.704419093043216E+00  0.281159570633807E-01  0.704419093043216E+00  0.281159570633807E-01  0.704419093043216E+00  0.281159570633807E-01
  0.694708412716314E+00  0.350955535814943E-01  0.694708412716314E+00  0.350955535814943E-01  0.694708412716314E+00  0.350955535814943E-01
  0.684910928549455E+00  0.423848598868016E-01  0.684910928549455E+00  0.423848598868016E-01  0.684910928549455E+00  0.423848598868016E-01
  0.675016281423615E+00  0.499813959003749E-01  0.675016281423615E+00  0.499813959003749E-01  0.675016281423615E+00  0.499813959003749E-01
  0.665013731186597E+00  0.578823825964187E-01  0.665013731186597E+00  0.578823825964187E-01  0.665013731186597E+00  0.578823825964187E-01
  0.654892125628525E+00  0.660846665462505E-01  0.654892125628525E+00  0.660846665462505E-01  0.654892125628525E+00  0.660846665462505E-01
  0.644639874738972E+00  0.745846409043678E-01  0.644639874738972E+00  0.745846409043678E-01  0.644639874738972E+00  0.745846409043678E-01
  0.634244930808101E+00  0.833781622317253E-01  0.634244930808101E+00  0.833781622317253E-01  0.634244930808101E+00  0.833781622317253E-01
  0.623694775154068E+00  0.924604626747968E-01  0.623694775154068E+00  0.924604626747968E-01  0.623694775154068E+00  0.924604626747968E-01
  0.612976412480064E+00  0.101826057158010E+00  0.612976412480064E+00  0.101826057158010E+00  0.612976412480064E+00  0.101826057158010E+00
  0.602076374087705E+00  0.111468645411540E+00  0.602076374087705E+00  0.111468645411540E+00  0.602076374087705E+00  0.111468645411540E+00
  0.590980731397767E+00  0.121381008856237E+00  0.590980731397767E+00  0.121381008856237E+00  0.590980731397767E+00  0.121381008856237E+00
  0.579675121450456E+00  0.131554902612817E+00  0.579675121450456E+00  0.131554902612817E+00  0.579675121450456E+00  0.131554902612817E+00
  0.568144786268460E+00  0.141980943203649E+00  0.568144786268460E+00  0.141980943203649E+00  0.568144786268460E+00  0.141980943203649E+00
  0.556374628156054E+00  0.152648492882419E+00  0.556374628156054E+00  0.152648492882419E+00  0.556374628156054E+00  0.152648492882419E+00
  0.544349283161305E+00  0.163545541968472E+00  0.544349283161305E+00  0.163545541968472E+00  0.544349283161305E+00  0.163545541968472E+00
  0.532053215025880E+00  0.174658591085442E+00  0.532053215025880E+00  0.174658591085442E+00  0.532053215025880E+00  0.174658591085442E+00
  0.519470831962222E+00  0.185972535810842E+00  0.519470831962222E+00  0.185972535810842E+00  0.519470831962222E+00  0.185972535810842E+00
  0.506586628499972E+00  0.197470556931923E+00  0.506586628499972E+00  0.197470556931923E+00  0.506586628499972E+00  0.197470556931923E+00
  0.493385354395627E+00  0.209134020262313E+00  0.493385354395627E+00  0.209134020262313E+00  0.493385354395627E+00  0.209134020262313E+00
  0.479852212161348E+00  0.220942390781657E+00  0.479852212161348E+00  0.220942390781657E+00  0.479852212161348E+00  0.220942390781657E+00
  0.465973084098301E+00  0.232873166680234E+00  0.465973084098301E+00  0.232873166680234E+00  0.465973084098301E+00  0.232873166680234E+00
  0.451734788777412E+00  0.244901839668466E+00  0.451734788777412E+00  0.244901839668466E+00  0.451734788777412E+00  0.244901839668466E+00
  0.437125365664394E+00  0.257001888574145E+00  0.437125365664394E+00  0.257001888574145E+00  0.437125365664394E+00  0.257001888574145E+00
  0.422134385021017E+00  0.269144813704262E+00  0.422134385021017E+00  0.269144813704262E+00  0.422134385021017E+00  0.269144813704262E+00
  0.406753278340686E+00  0.281300219581865E+00  0.406753278340686E+00  0.281300219581865E+00  0.406753278340686E+00  0.281300219581865E+00
  0.390975682439490E+00  0.293435953357006E+00  0.390975682439490E+00  0.293435953357006E+00  0.390975682439490E+00  0.293435953357006E+00
  0.374797788015742E+00  0.305518305308840E+00  0.374797788015742E+00  0.305518305308840E+00  0.374797788015742E+00  0.305518305308840E+00
  0.358218681157070E+00  0.317512276292251E+00  0.358218681157070E+00  0.317512276292251E+00  0.358218681157070E+00  0.317512276292251E+00
  0.341240664115130E+00  0.329381914662224E+00  0.341240664115130E+00  0.329381914662224E+00  0.341240664115130E+00  0.329381914662224E+00
  0.323869539933714E+00  0.341090722119464E+00  0.323869539933714E+00  0.341090722119464E+00  0.323869539933714E+00  0.341090722119464E+00
  0.306114844487098E+00  0.352602124134662E+00  0.306114844487098E+00  0.352602124134662E+00  0.306114844487098E+00  0.352602124134662E+00
  0.287990009442841E+00  0.363879996305967E+00  0.287990009442841E+00  0.363879996305967E+00  0.287990009442841E+00  0.363879996305967E+00
  0.269512440845761E+00  0.374889233478167E+00  0.269512440845761E+00  0.374889233478167E+00  0.269512440845761E+00  0.374889233478167E+00
  0.250703500575287E+00  0.385596344099883E+00  0.250703500575287E+00  0.385596344099883E+00  0.250703500575287E+00  0.385596344099883E+00
  0.231588381866213E+00  0.395970048584114E+00  0.231588381866213E+00  0.395970048584114E+00  0.231588381866213E+00  0.395970048584114E+00
  0.212195875239135E+00  0.405981857849668E+00  0.212195875239135E+00  0.405981857849668E+00  0.212195875239135E+00  0.405981857849668E+00
  0.192558027213928E+00  0.415606607180453E+00  0.192558027213928E+00  0.415606607180453E+00  0.192558027213928E+00  0.415606607180453E+00
  0.172709700568339E+00  0.424822921335730E+00  0.172709700568339E+00  0.424822921335730E+00  0.172709700568339E+00  0.424822921335730E+00
  0.152688051039714E+00  0.433613589566993E+00  0.152688051039714E+00  0.433613589566993E+00  0.152688051039714E+00  0.433613589566993E+00
  0.132531940616006E+00  0.441965833699468E+00  0.132531940616006E+00  0.441965833699468E+00  0.132531940616006E+00  0.441965833699468E+00
  0.112281311363502E+00  0.449871458339188E+00  0.112281311363502E+00  0.449871458339188E+00  0.112281311363502E+00  0.449871458339188E+00
  0.919765456997799E-01  0.457326879005452E+00  0.919765456997799E-01  0.457326879005452E+00  0.919765456997799E-01  0.457326879005452E+00
  0.716578389755724E-01  0.464333030895552E+00  0.716578389755724E-01  0.464333030895552E+00  0.716578389755724E-01  0.464333030895552E+00
  0.513646082611785E-01  0.470895167394523E+00  0.513646082611785E-01  0.470895167394523E+00  0.513646082611785E-01  0.470895167394523E+00
  0.311349576494593E-01  0.477022562774101E+00  0.311349576494593E-01  0.477022562774101E+00  0.311349576494593E-01  0.477022562774101E+00
  0.110052156593160E-01  0.482728137380022E+00  0.110052156593160E-01  0.482728137380022E+00  0.110052156593160E-01  0.482728137380022E+00
 -0.899044499739397E-02  0.488028025793475E+00 -0.899044499739397E-02  0.488028025793475E+00 -0.899044499739397E-02  0.488028025793475E+00
 -0.288203003900736E-01  0.492941108988636E+00 -0.288203003900736E-01  0.492941108988636E+00 -0.288203003900736E-01  0.492941108988636E+00
 -0.484552811343866E-01  0.497488530586804E+00 -0.484552811343866E-01  0.497488530586804E+00 -0.484552811343866E-01  0.497488530586804E+00
 -0.678690951760090E-01  0.501693215242098E+00 -0.678690951760090E-01  0.501693215242098E+00 -0.678690951760090E-01  0.501693215242098E+00
 -0.870382750315900E-01  0.505579404354330E+00 -0.870382750315900E-01  0.505579404354330E+00 -0.870382750315900E-01  0.505579404354330E+00
 -0.105942159104177E+00  0.509172221062654E+00 -0.105942159104177E+00  0.509172221062654E+00 -0.105942159104177E+00  0.509172221062654E+00
 -0.124562817886305E+00  0.512497273156438E+00 -0.124562817886305E+00  0.512497273156438E+00 -0.124562817886305E+00  0.512497273156438E+00
 -0.142884936205252E+00  0.515580299405550E+00 -0.142884936205252E+00  0.515580299405550E+00 -0.142884936205252E+00  0.515580299405550E+00
 -0.160895662324372E+00  0.518446862039308E+00 -0.160895662324372E+00  0.518446862039308E+00 -0.160895662324372E+00  0.518446862039308E+00
 -0.178584433878717E+00  0.521122085793211E+00 -0.178584433878717E+00  0.521122085793211E+00 -0.178584433878717E+00  0.521122085793211E+00
 -0.195942789470175E+00  0.523630442131859E+00 -0.195942789470175E+00  0.523630442131859E+00 -0.195942789470175E+00  0.523630442131859E+00
 -0.212964173431161E+00  0.525995575931883E+00 -0.212964173431161E+00  0.525995575931883E+00 -0.212964173431161E+00  0.525995575931883E+00
 -0.229643739909391E+00  0.528240171023768E+00 -0.229643739909391E+00  0.528240171023768E+00 -0.229643739909391E+00  0.528240171023768E+00
 -0.245978161119877E+00  0.530385850480804E+00 -0.245978161119877E+00  0.530385850480804E+00 -0.245978161119877E+00  0.530385850480804E+00
 -0.261965443414017E+00  0.532453107334490E+00 -0.261965443414017E+00  0.532453107334490E+00 -0.261965443414017E+00  0.532453107334490E+00
 -0.277604753764250E+00  0.534461261417057E+00 -0.277604753764250E+00  0.534461261417057E+00 -0.277604753764250E+00  0.534461261417057E+00
 -0.292896258370754E+00  0.536428438218677E+00 -0.292896258370754E+00  0.536428438218677E+00 -0.292896258370754E+00  0.536428438218677E+00
 -0.307840974364270E+00  0.538371565943769E+00 -0.307840974364270E+00  0.538371565943769E+00 -0.307840974364270E+00  0.538371565943769E+00
 -0.322440634996559E+00  0.540306387312598E+00 -0.322440634996559E+00  0.540306387312598E+00 -0.322440634996559E+00  0.540306387312598E+00
 -0.336697568262037E+00  0.542247483046153E+00 -0.336697568262037E+00  0.542247483046153E+00 -0.336697568262037E+00  0.542247483046153E+00
 -0.350614588562433E+00  0.544208304368331E+00 -0.350614588562433E+00  0.544208304368331E+00 -0.350614588562433E+00  0.544208304368331E+00
 -0.364194900792230E+00  0.546201212241654E+00 -0.364194900792230E+00  0.546201212241654E+00 -0.364194900792230E+00  0.546201212241654E+00
 -0.377442016068020E+00  0.548237521409490E+00 -0.377442016068020E+00  0.548237521409490E+00 -0.377442016068020E+00  0.548237521409490E+00
 -0.390359678233469E+00  0.550327547642172E+00 -0.390359678233469E+00  0.550327547642172E+00 -0.390359678233469E+00  0.550327547642172E+00
 -0.402951800228917E+00  0.552480656873341E+00 -0.402951800228917E+00  0.552480656873341E+00 -0.402951800228917E+00  0.552480656873341E+00
 -0.415222409408558E+00  0.554705315165756E+00 -0.415222409408558E+00  0.554705315165756E+00 -0.415222409408558E+00  0.554705315165756E+00
 -0.427175600908724E+00  0.557009138663899E+00 -0.427175600908724E+00  0.557009138663899E+00 -0.427175600908724E+00  0.557009138663899E+00
 -0.438815498209733E+00  0.559398942876296E+00 -0.438815498209733E+00  0.559398942876296E+00 -0.438815498209733E+00  0.559398942876296E+00
 -0.450146220084841E+00  0.561880790786493E+00 -0.450146220084841E+00  0.561880790786493E+00 -0.450146220084841E+00  0.561880790786493E+00
 -0.461171853188004E+00  0.564460039421365E+00 -0.461171853188004E+00  0.564460039421365E+00 -0.461171853188004E+00  0.564460039421365E+00
 -0.471896429593727E+00  0.567141384612071E+00 -0.471896429593727E+00  0.567141384612071E+00 -0.471896429593727E+00  0.567141384612071E+00
 -0.482323908664508E+00  0.569928903769686E+00 -0.482323908664508E+00  0.569928903769686E+00 -0.482323908664508E+00  0.569928903769686E+00
 -0.492458162682310E+00  0.572826096567271E+00 -0.492458162682310E+00  0.572826096567271E+00 -0.492458162682310E+00  0.572826096567271E+00
 -0.502302965738858E+00  0.575835923475492E+00 -0.502302965738858E+00  0.575835923475492E+00 -0.502302965738858E+00  0.575835923475492E+00
 -0.511861985434361E+00  0.578960842142188E+00 -0.511861985434361E+00  0.578960842142188E+00 -0.511861985434361E+00  0.578960842142188E+00
 -0.521138776985188E+00  0.582202841639682E+00 -0.521138776985188E+00  0.582202841639682E+00 -0.521138776985188E+00  0.582202841639682E+00
 -0.530136779387691E+00  0.585563474628757E+00 -0.530136779387691E+00  0.585563474628757E+00 -0.530136779387691E+00  0.585563474628757E+00
 -0.538859313327862E+00  0.589043887506682E+00 -0.538859313327862E+00  0.589043887506682E+00 -0.538859313327862E+00  0.589043887506682E+00
 -0.547309580564808E+00  0.592644848619766E+00 -0.547309580564808E+00  0.592644848619766E+00 -0.547309580564808E+00  0.592644848619766E+00
 -0.555490664550445E+00  0.596366774629629E+00 -0.555490664550445E+00  0.596366774629629E+00 -0.555490664550445E+00  0.596366774629629E+00
 -0.563405532078461E+00  0.600209755127679E+00 -0.563405532078461E+00  0.600209755127679E+00 -0.563405532078461E+00  0.600209755127679E+00
 -0.571057035782870E+00  0.604173575594919E+00 -0.571057035782870E+00  0.604173575594919E+00 -0.571057035782870E+00  0.604173575594919E+00
 -0.578447917330571E+00  0.608257738804692E+00 -0.578447917330571E+00  0.608257738804692E+00 -0.578447917330571E+00  0.608257738804692E+00
 -0.585580811173588E+00  0.612461484764934E+00 -0.585580811173588E+00  0.612461484764934E+00 -0.585580811173588E+00  0.612461484764934E+00
 -0.592458248745336E+00  0.616783809294225E+00 -0.592458248745336E+00  0.616783809294225E+00 -0.592458248745336E+00  0.616783809294225E+00
 -0.599082663001633E+00  0.621223481322834E+00 -0.599082663001633E+00  0.621223481322834E+00 -0.599082663001633E+00  0.621223481322834E+00
 -0.605456393221495E+00  0.625779059006190E+00 -0.605456393221495E+00  0.625779059006190E+00 -0.605456393221495E+00  0.625779059006190E+00
 -0.611581689995234E+00  0.630448904734122E+00 -0.611581689995234E+00  0.630448904734122E+00 -0.611581689995234E+00  0.630448904734122E+00
 -0.617460720338246E+00  0.635231199114840E+00 -0.617460720338246E+00  0.635231199114840E+00 -0.617460720338246E+00  0.635231199114840E+00
 -0.623095572878305E+00  0.640123954008125E+00 -0.623095572878305E+00  0.640123954008125E+00 -0.623095572878305E+00  0.640123954008125E+00
 -0.628488263072405E+00  0.645125024677739E+00 -0.628488263072405E+00  0.645125024677739E+00 -0.628488263072405E+00  0.645125024677739E+00
 -0.633640738416223E+00  0.650232121128620E+00 -0.633640738416223E+00  0.650232121128620E+00 -0.633640738416223E+00  0.650232121128620E+00
 -0.638554883615441E+00  0.655442818690081E+00 -0.638554883615441E+00  0.655442818690081E+00 -0.638554883615441E+00  0.655442818690081E+00
 -0.643232525693420E+00  0.660754567902091E+00 -0.643232525693420E+00  0.660754567902091E+00 -0.643232525693420E+00  0.660754567902091E+00
 -0.647675439014268E+00  0.666164703757679E+00 -0.647675439014268E+00  0.666164703757679E+00 -0.647675439014268E+00  0.666164703757679E+00
 -0.651885350204246E+00  0.671670454350726E+00 -0.651885350204246E+00  0.671670454350726E+00 -0.651885350204246E+00  0.671670454350726E+00
 -0.655863942957797E+00  0.677268948974788E+00 -0.655863942957797E+00  0.677268948974788E+00 -0.655863942957797E+00  0.677268948974788E+00
 -0.659612862717355E+00  0.682957225715200E+00 -0.659612862717355E+00  0.682957225715200E+00 -0.659612862717355E+00  0.682957225715200E+00
 -0.663133721218506E+00  0.688732238573538E+00 -0.663133721218506E+00  0.688732238573538E+00 -0.663133721218506E+00  0.688732238573538E+00
 -0.666428100894186E+00  0.694590864160505E+00 -0.666428100894186E+00  0.694590864160505E+00 -0.666428100894186E+00  0.694590864160505E+00
 -0.669497559133337E+00  0.700529907990553E+00 -0.669497559133337E+00  0.700529907990553E+00 -0.669497559133337E+00  0.700529907990553E+00
 -0.672343632390924E+00  0.706546110408937E+00 -0.672343632390924E+00  0.706546110408937E+00 -0.672343632390924E+00  0.706546110408937E+00
 -0.674967840147510E+00  0.712636152179504E+00 -0.674967840147510E+00  0.712636152179504E+00 -0.674967840147510E+00  0.712636152179504E+00
 -0.677371688717596E+00  0.718796659759272E+00 -0.677371688717596E+00  0.718796659759272E+00 -0.677371688717596E+00  0.718796659759272E+00
 -0.679556674906836E+00  0.725024210283783E+00 -0.679556674906836E+00  0.725024210283783E+00 -0.679556674906836E+00  0.725024210283783E+00
 -0.681524289518955E+00  0.731315336285328E+00 -0.681524289518955E+00  0.731315336285328E+00 -0.681524289518955E+00  0.731315336285328E+00
 -0.683276020713804E+00  0.737666530164306E+00 -0.683276020713804E+00  0.737666530164306E+00 -0.683276020713804E+00  0.737666530164306E+00
 -0.684813357218470E+00  0.744074248432418E+00 -0.684813357218470E+00  0.744074248432418E+00 -0.684813357218470E+00  0.744074248432418E+00
 -0.686137791393753E+00  0.750534915744822E+00 -0.686137791393753E+00  0.750534915744822E+00 -0.686137791393753E+00  0.750534915744822E+00
 -0.687250822158648E+00  0.757044928737044E+00 -0.687250822158648E+00  0.757044928737044E+00 -0.687250822158648E+00  0.757044928737044E+00
 -0.688153957775699E+00  0.763600659681082E+00 -0.688153957775699E+00  0.763600659681082E+00 -0.688153957775699E+00  0.763600659681082E+00
 -0.688848718500292E+00  0.770198459974038E+00 -0.688848718500292E+00  0.770198459974038E+00 -0.688848718500292E+00  0.770198459974038E+00
 -0.689336639097097E+00  0.776834663471464E+00 -0.689336639097097E+00  0.776834663471464E+00 -0.689336639097097E+00  0.776834663471464E+00
 -0.689619271226940E+00  0.783505589676625E+00 -0.689619271226940E+00  0.783505589676625E+00 -0.689619271226940E+00  0.783505589676625E+00
 -0.689698185707486E+00  0.790207546795968E+00 -0.689698185707486E+00  0.790207546795968E+00 -0.689698185707486E+00  0.790207546795968E+00
 -0.689574974651116E+00  0.796936834670223E+00 -0.689574974651116E+00  0.796936834670223E+00 -0.689574974651116E+00  0.796936834670223E+00
 -0.689251253483409E+00  0.803689747589786E+00 -0.689251253483409E+00  0.803689747589786E+00 -0.689251253483409E+00  0.803689747589786E+00
 -0.688728662845611E+00  0.810462577002305E+00 -0.688728662845611E+00  0.810462577002305E+00 -0.688728662845611E+00  0.810462577002305E+00
 -0.688008870384460E+00  0.817251614119754E+00 -0.688008870384460E+00  0.817251614119754E+00 -0.688008870384460E+00  0.817251614119754E+00
 -0.687093572432695E+00  0.824053152431630E+00 -0.687093572432695E+00  0.824053152431630E+00 -0.687093572432695E+00  0.824053152431630E+00
 -0.685984495583508E+00  0.830863490130393E+00 -0.685984495583508E+00  0.830863490130393E+00 -0.685984495583508E+00  0.830863490130393E+00
 -0.684683398162152E+00  0.837678932454708E+00 -0.684683398162152E+00  0.837678932454708E+00 -0.684683398162152E+00  0.837678932454708E+00
 -0.683192071597855E+00  0.844495793955621E+00 -0.683192071597855E+00  0.844495793955621E+00 -0.683192071597855E+00  0.844495793955621E+00
 -0.681512341699101E+00  0.851310400690318E+00 -0.681512341699101E+00  0.851310400690318E+00 -0.681512341699101E+00  0.851310400690318E+00
 -0.679646069835275E+00  0.858119092347754E+00 -0.679646069835275E+00  0.858119092347754E+00 -0.679646069835275E+00  0.858119092347754E+00
 -0.677595154027592E+00  0.864918224310034E+00 -0.677595154027592E+00  0.864918224310034E+00 -0.677595154027592E+00  0.864918224310034E+00
 -0.675361529952143E+00  0.871704169653130E+00 -0.675361529952143E+00  0.871704169653130E+00 -0.675361529952143E+00  0.871704169653130E+00
 -0.672947171857817E+00  0.878473321090157E+00 -0.672947171857817E+00  0.878473321090157E+00 -0.672947171857817E+00  0.878473321090157E+00
 -0.670354093401776E+00  0.885222092860175E+00 -0.670354093401776E+00  0.885222092860175E+00 -0.670354093401776E+00  0.885222092860175E+00
 -0.667584348405081E+00  0.891946922565226E+00 -0.667584348405081E+00  0.891946922565226E+00 -0.667584348405081E+00  0.891946922565226E+00
 -0.664640031530991E+00  0.898644272958031E+00 -0.664640031530991E+00  0.898644272958031E+00 -0.664640031530991E+00  0.898644272958031E+00
 -0.661523278888368E+00  0.905310633682583E+00 -0.661523278888368E+00  0.905310633682583E+00 -0.661523278888368E+00  0.905310633682583E+00
 -0.658236268562576E+00  0.911942522969664E+00 -0.658236268562576E+00  0.911942522969664E+00 -0.658236268562576E+00  0.911942522969664E+00
 -0.654781221076142E+00  0.918536489289097E+00 -0.654781221076142E+00  0.918536489289097E+00 -0.654781221076142E+00  0.918536489289097E+00
 -0.651160399781432E+00  0.925089112960394E+00 -0.651160399781432E+00  0.925089112960394E+00 -0.651160399781432E+00  0.925089112960394E+00
 -0.647376111187476E+00  0.931597007723292E+00 -0.647376111187476E+00  0.931597007723292E+00 -0.647376111187476E+00  0.931597007723292E+00
 -0.643430705223043E+00  0.938056822269513E+00 -0.643430705223043E+00  0.938056822269513E+00 -0.643430705223043E+00  0.938056822269513E+00
 -0.639326575437985E+00  0.944465241736963E+00 -0.639326575437985E+00  0.944465241736963E+00 -0.639326575437985E+00  0.944465241736963E+00
 -0.635066159144833E+00  0.950818989167442E+00 -0.635066159144833E+00  0.950818989167442E+00 -0.635066159144833E+00  0.950818989167442E+00
 -0.630651937502521E+00  0.957114826928828E+00 -0.630651937502521E+00  0.957114826928828E+00 -0.630651937502521E+00  0.957114826928828E+00
 -0.626086435544124E+00  0.963349558102594E+00 -0.626086435544124E+00  0.963349558102594E+00 -0.626086435544124E+00  0.963349558102594E+00
 -0.621372222150375E+00  0.969520027837427E+00 -0.621372222150375E+00  0.969520027837427E+00 -0.621372222150375E+00  0.969520027837427E+00
 -0.616511909970739E+00  0.975623124669589E+00 -0.616511909970739E+00  0.975623124669589E+00 -0.616511909970739E+00  0.975623124669589E+00
 -0.611508155293714E+00  0.981655781810639E+00 -0.611508155293714E+00  0.981655781810639E+00 -0.611508155293714E+00  0.981655781810639E+00
 -0.606363657868023E+00  0.987614978402996E+00 -0.606363657868023E+00  0.987614978402996E+00 -0.606363657868023E+00  0.987614978402996E+00
 -0.601081160676312E+00  0.993497740743796E+00 -0.601081160676312E+00  0.993497740743796E+00 -0.601081160676312E+00  0.993497740743796E+00
 -0.595663449662903E+00  0.999301143477411E+00 -0.595663449662903E+00  0.999301143477411E+00 -0.595663449662903E+00  0.999301143477411E+00
 -0.590113353417139E+00  0.100502231075694E+01 -0.590113353417139E+00  0.100502231075694E+01 -0.590113353417139E+00  0.100502231075694E+01
 -0.584433742813810E+00  0.101065841737495E+01 -0.584433742813810E+00  0.101065841737495E+01 -0.584433742813810E+00  0.101065841737495E+01
 -0.578627530612104E+00  0.101620668986360E+01 -0.578627530612104E+00  0.101620668986360E+01 -0.578627530612104E+00  0.101620668986360E+01
 -0.572697671014518E+00  0.102166440756447E+01 -0.572697671014518E+00  0.102166440756447E+01 -0.572697671014518E+00  0.102166440756447E+01
 -0.566647159187094E+00  0.102702890366798E+01 -0.566647159187094E+00  0.102702890366798E+01 -0.566647159187094E+00  0.102702890366798E+01
 -0.560479030742361E+00  0.103229756622274E+01 -0.560479030742361E+00  0.103229756622274E+01 -0.560479030742361E+00  0.103229756622274E+01
 -0.554196361186300E+00  0.103746783911463E+01 -0.554196361186300E+00  0.103746783911463E+01 -0.554196361186300E+00  0.103746783911463E+01
 -0.547802265330631E+00  0.104253722301578E+01 -0.547802265330631E+00  0.104253722301578E+01 -0.547802265330631E+00  0.104253722301578E+01
 -0.541299896671709E+00  0.104750327630340E+01 -0.541299896671709E+00  0.104750327630340E+01 -0.541299896671709E+00  0.104750327630340E+01
 -0.534692446737279E+00  0.105236361594835E+01 -0.534692446737279E+00  0.105236361594835E+01 -0.534692446737279E+00  0.105236361594835E+01
 -0.527983144402322E+00  0.105711591837343E+01 -0.527983144402322E+00  0.105711591837343E+01 -0.527983144402322E+00  0.105711591837343E+01
 -0.521175255175194E+00  0.106175792028130E+01 -0.521175255175194E+00  0.106175792028130E+01 -0.521175255175194E+00  0.106175792028130E+01
 -0.514272080455267E+00  0.106628741945186E+01 -0.514272080455267E+00  0.106628741945186E+01 -0.514272080455267E+00  0.106628741945186E+01
 -0.507276956763230E+00  0.107070227550898E+01 -0.507276956763230E+00  0.107070227550898E+01 -0.507276956763230E+00  0.107070227550898E+01
 -0.500193254945206E+00  0.107500041065642E+01 -0.500193254945206E+00  0.107500041065642E+01 -0.500193254945206E+00  0.107500041065642E+01
 -0.493024379351835E+00  0.107917981038279E+01 -0.493024379351835E+00  0.107917981038279E+01 -0.493024379351835E+00  0.107917981038279E+01
 -0.485773766993435E+00  0.108323852413529E+01 -0.485773766993435E+00  0.108323852413529E+01 -0.485773766993435E+00  0.108323852413529E+01
 -0.478444886672356E+00  0.108717466596208E+01 -0.478444886672356E+00  0.108717466596208E+01 -0.478444886672356E+00  0.108717466596208E+01
 -0.471041238093627E+00  0.109098641512304E+01 -0.471041238093627E+00  0.109098641512304E+01 -0.471041238093627E+00  0.109098641512304E+01
 -0.463566350954973E+00  0.109467201666868E+01 -0.463566350954973E+00  0.109467201666868E+01 -0.463566350954973E+00  0.109467201666868E+01
 -0.456023784017280E+00  0.109822978198696E+01 -0.456023784017280E+00  0.109822978198696E+01 -0.456023784017280E+00  0.109822978198696E+01
 -0.448417124156569E+00  0.110165808931779E+01 -0.448417124156569E+00  0.110165808931779E+01 -0.448417124156569E+00  0.110165808931779E+01
 -0.440749985398525E+00  0.110495538423489E+01 -0.440749985398525E+00  0.110495538423489E+01 -0.440749985398525E+00  0.110495538423489E+01
 -0.433026007936641E+00  0.110812018009472E+01 -0.433026007936641E+00  0.110812018009472E+01 -0.433026007936641E+00  0.110812018009472E+01
 -0.425248857134986E+00  0.111115105845232E+01 -0.425248857134986E+00  0.111115105845232E+01 -0.425248857134986E+00  0.111115105845232E+01
 -0.417422222516639E+00  0.111404666944357E+01 -0.417422222516639E+00  0.111404666944357E+01 -0.417422222516639E+00  0.111404666944357E+01
 -0.409549816738808E+00  0.111680573213373E+01 -0.409549816738808E+00  0.111680573213373E+01 -0.409549816738808E+00  0.111680573213373E+01
 -0.401635374555634E+00  0.111942703483180E+01 -0.401635374555634E+00  0.111942703483180E+01 -0.401635374555634E+00  0.111942703483180E+01
 -0.393682651769697E+00  0.112190943537052E+01 -0.393682651769697E+00  0.112190943537052E+01 -0.393682651769697E+00  0.112190943537052E+01
 -0.385695424173205E+00  0.112425186135151E+01 -0.385695424173205E+00  0.112425186135151E+01 -0.385695424173205E+00  0.112425186135151E+01
 -0.377677486479885E+00  0.112645331035537E+01 -0.377677486479885E+00  0.112645331035537E+01 -0.377677486479885E+00  0.112645331035537E+01
 -0.369632651248531E+00  0.112851285011623E+01 -0.369632651248531E+00  0.112851285011623E+01 -0.369632651248531E+00  0.112851285011623E+01