 VARIABLES = "x", "y", "z", "t"
 ZONE DATAPACKING=POINT, I=       10001
   12.0000000000000        15.0000000000000        30.0000000000000     
  0.000000000000000E+000
   12.0728300111079        14.8986853393426        30.2490411368404     
  2.500000000000000E-003
   12.1412658913805        14.7897525926664        30.4958872247890     
  5.000000000000000E-003
   12.2052284116429        14.6732353717010        30.7401223864375     
  7.500000000000000E-003
   12.2646414074216        14.5491897955410        30.9813320196023     
  1.000000000000000E-002
   12.3194322607173        14.4176946119468        31.2191042282445     
  1.250000000000000E-002
   12.3695323714856        14.2788512057075        31.4530312816139     
  1.500000000000000E-002
   12.4148776162443        14.1327834902907        31.6827110914263     
  1.750000000000000E-002
   12.4554087912048        13.9796376799922        31.9077486963918     
  2.000000000000000E-002
   12.4910720373369        13.8195819408647        32.1277577430302     
  2.250000000000000E-002
   12.5218192448102        13.6528059198277        32.3423619514498     
  2.500000000000000E-002
   12.5476084343182        13.4795201525271        32.5511965546262     
  2.750000000000000E-002
   12.5684041128804        13.2999553517083        32.7539096997170     
  3.000000000000000E-002
   12.5841776018391        13.1143615790747        32.9501638000867     
  3.250000000000000E-002
   12.5949073349077        12.9230073047993        33.1396368269874     
  3.500000000000000E-002
   12.6005791243010        12.7261783600367        33.3220235302636     
  3.750000000000000E-002
   12.6011863931713        12.5241767889096        33.4970365779958     
  4.000000000000000E-002
   12.5967303727926        12.3173196075149        33.6644076056892     
  4.250000000000000E-002
   12.5872202631703        12.1059374784889        33.8238881664168     
  4.500000000000000E-002
   12.5726733560098        11.8903733105609        33.9752505742502     
  4.750000000000000E-002
   12.5531151192478        11.6709807933208        34.1182886343330     
  5.000000000000000E-002
   12.5285792426278        11.4481228780834        34.2528182540570     
  5.250000000000000E-002
   12.4991076440933        11.2221702162717        34.3786779309825     
  5.500000000000000E-002
   12.4647504370602        10.9934995671306        34.4957291143684     
  5.750000000000000E-002
   12.4255658589297        10.7624921868285        34.6038564384430     
  6.000000000000000E-002
   12.3816201614867        10.5295322111022        34.7029678268222     
  6.250000000000000E-002
   12.3329874641174        10.2950050435465        34.7929944687522     
  6.500000000000000E-002
   12.2797495710510        10.0592957614493        34.8738906691026     
  6.750000000000000E-002
   12.2219957540908        9.82278755072923        34.9456335752390     
  7.000000000000001E-002
   12.1598225025447        9.58586018105856        35.0082227850502     
  7.250000000000000E-002
   12.0933332422869        9.34888853164662        35.0616798414748     
  7.500000000000000E-002
   12.0226380260880        9.11224117744762        35.1060476198499     
  7.750000000000000E-002
   11.9478531975263        8.87627904473849        35.1413896152850     
  8.000000000000000E-002
   11.8691010309473        8.64135414411319        35.1677891380262     
  8.250000000000000E-002
   11.7865093500643        8.40780838797036        35.1853484254247     
  8.500000000000001E-002
   11.7002111278905        8.17597249854988        35.1941876796421     
  8.749999999999999E-002
   11.6103440707631        7.94616501151651        35.1944440406172     
  9.000000000000000E-002
   11.5170501892627        7.71869137901331        35.1862705040843     
  9.250000000000000E-002
   11.4204753588447        7.49384317502913        35.1698347945677     
  9.500000000000000E-002
   11.3207688729868        7.27189740485964        35.1453182032908     
  9.750000000000000E-002
   11.2180829916189        7.05311591940415        35.1129144008352     
  0.100000000000000     
   11.1125724875393        6.83774493404449        35.0728282341688     
  0.102500000000000     
   11.0043941934364        6.62601465090913        35.0252745173481     
  0.105000000000000     
   10.8937065520283        6.41813898244655        34.9704768247939     
  0.107500000000000     
   10.7806691717120        6.21431537342347        34.9086662955502     
  0.110000000000000     
   10.6654423899721        6.01472471773524        34.8400804563860     
  0.112500000000000     
   10.5481868466469        5.81953136577032        34.7649620709840     
  0.115000000000000     
   10.4290630689852        5.62888321751269        34.6835580218090     
  0.117500000000000     
   10.3082310702566        5.44291189609719        34.5961182305593     
  0.120000000000000     
   10.1858499634950        5.26173299615223        34.5028946223956     
  0.122500000000000     
   10.0620775917771        5.08544640097182        34.4041401384290     
  0.125000000000000     
   9.93707017624949        4.91413666235099        34.3001078002272     
  0.127500000000000     
   9.81098198293605        4.74787343679191        34.1910498293972     
  0.130000000000000     
   9.68396500917544        4.58671197173772        34.0772168246117     
  0.132500000000000     
   9.55616869035992        4.43069363551165        33.9588569977887     
  0.135000000000000     
   9.42773962747642        4.27984648472403        33.8362154705026     
  0.137500000000000     
   9.29882133578531        4.13418586305307        33.7095336311184     
  0.140000000000000     
   9.16955401481579        3.99371502549992        33.5790485525905     
  0.142500000000000     
   9.04007433971022        3.85842578245699        33.4449924703673     
  0.145000000000000     
   8.91051527381173        3.72829915820484        33.3075923193883     
  0.147500000000000     
   8.78100590226356        3.60330605875901        33.1670693287566     
  0.150000000000000     
   8.65167128627244        3.48340794431871        33.0236386723118     
  0.152500000000000     
   8.52263233758423        3.36855750191692        32.8775091730260     
  0.155000000000000     
   8.39400571262691        3.25869931423090        32.7288830588850     
  0.157500000000000     
   8.26590372569423        3.15377052087785        32.5779557677076     
  0.160000000000000     
   8.13843428047251        3.05370146888758        32.4249157981871     
  0.162500000000000     
   8.01170081915335        2.95841634940758        32.2699446043174     
  0.165000000000000     
   7.88580228832530        2.86783381805338        32.1132165302783     
  0.167500000000000     
   7.76083312079784        2.78186759666318        31.9548987828055     
  0.170000000000000     
   7.63688323248096        2.70042705454946        31.7951514380569     
  0.172500000000000     
   7.51403803342208        2.62341776765816        31.6341274799965     
  0.175000000000000     
   7.39237845208859        2.55074205434664        31.4719728673596     
  0.177500000000000     
   7.27198097197878        2.48229948677362        31.3088266263243     
  0.180000000000000     
   7.15291767964480        2.41798737715632        31.1448209660966     
  0.182500000000000     
   7.03525632321866        2.35770123839188        30.9800814147174     
  0.185000000000000     
   6.91906038054513        2.30133521876159        30.8147269725099     
  0.187500000000000     
   6.80438913604294        2.24878251063672        30.6488702807125     
  0.190000000000000     
   6.69129776543791        2.19993573328512        30.4826178029741     
  0.192500000000000     
   6.57983742753692        2.15468729003853        30.3160700175271     
  0.195000000000000     
   6.47005536224069        2.11292970022114        30.1493216179962     
  0.197500000000000     
   6.36199499402440        2.07455590636362        29.9824617209476     
  0.200000000000000     
   6.25569604014855        2.03945955733175        29.8155740784249     
  0.202500000000000     
   6.15119462289724        2.00753526808834        29.6487372938674     
  0.205000000000000     
   6.04852338517744        1.97867885688066        29.4820250399419     
  0.207500000000000     
   5.94771160884904        1.95278756070565        29.3155062769636     
  0.210000000000000     
   5.84878533519328        1.92976022995143        29.1492454707097     
  0.212500000000000     
   5.75176748696386        1.90949750314866        28.9833028085621     
  0.215000000000000     
   5.65667799150271        1.89190196278925        28.8177344130359     
  0.217500000000000     
   5.56353390443839        1.87687827318426        28.6525925518672     
  0.220000000000000     
   5.47234953352164        1.86433330133828        28.4879258439443     
  0.222500000000000     
   5.38313656218728        1.85417622181619        28.3237794604675     
  0.225000000000000     
   5.29590417246623        1.84631860656908        28.1601953208213     
  0.227500000000000     
   5.21065916690394        1.84067450067221        27.9972122827292     
  0.230000000000000     
   5.12740608917368        1.83716048490834        27.8348663263457     
  0.232500000000000     
   5.04614734310345        1.83569572610666        27.6731907320132     
  0.235000000000000     
   4.96688330986433        1.83620201612049        27.5122162514826     
  0.237500000000000     
   4.88961246309586        1.83860380029733        27.3519712724569     
  0.240000000000000     
   4.81433148177007        1.84282819626317        27.1924819763741     
  0.242500000000000     
   4.74103536062093        1.84880500380939        27.0337724893958     
  0.245000000000000     
   4.66971751798881        1.85646670663572        26.8758650266137     
  0.247500000000000     
   4.60036990095181        1.86574846666766        26.7187800295231     
  0.250000000000000     
   4.53298308763622        1.87658811163046        26.5625362968506     
  0.252500000000000     
   4.46754638661710        1.88892611652609        26.4071511088504     
  0.255000000000000     
   4.40404793333820        1.90270557962377        26.2526403452112     
  0.257500000000000     
   4.34247478349642        1.91787219353915        26.0990185967361     
  0.260000000000000     
   4.28281300335120        1.93437421194276        25.9462992709780     
  0.262500000000000     
   4.22504775693340        1.95216241240431        25.7944946920250     
  0.265000000000000     
   4.16916339014054        1.97119005584627        25.6436161946467     
  0.267500000000000     
   4.11514351171726        1.99141284304864        25.4936742130158     
  0.270000000000000     
   4.06297107113014        2.01278886861546        25.3446783642320     
  0.272500000000000     
   4.01262843335572        2.03527857278454        25.1966375268751     
  0.275000000000000     
   3.96409745060917        2.05884469143306        25.0495599148195     
  0.277500000000000     
   3.91735953104855        2.08345220460485        24.9034531465426     
  0.280000000000000     
   3.87239570449680        2.10906828385919        24.7583243101578     
  0.282500000000000     
   3.82918668522920        2.13566223871647        24.6141800244034     
  0.285000000000000     
   3.78771293187994        2.16320546245280        24.4710264958128     
  0.287500000000000     
   3.74795470452544        2.19167137747342        24.3288695722888     
  0.290000000000000     
   3.70989211900662        2.22103538047440        24.1877147933007     
  0.292500000000000     
   3.67350519855522        2.25127478758188        24.0475674369156     
  0.295000000000000     
   3.63877392279260        2.28236877964036        23.9084325638701     
  0.297500000000000     
   3.60567827417125        2.31429834780366        23.7703150588828     
  0.300000000000000     
   3.57419828193152        2.34704623956623        23.6332196693995     
  0.302500000000000     
   3.54431406364734        2.38059690535723        23.4971510419574     
  0.305000000000000     
   3.51600586443564        2.41493644580551        23.3621137563466     
  0.307500000000000     
   3.48925409390496        2.45005255977036        23.2281123577392     
  0.310000000000000     
   3.46403936091909        2.48593449322070        23.0951513869514     
  0.312500000000000     
   3.44034250625138        2.52257298903340        22.9632354089924     
  0.315000000000000     
   3.41814463320545        2.55996023777120        22.8323690400520     
  0.317500000000000     
   3.39742713627720        2.59808982949026        22.7025569730653     
  0.320000000000000     
   3.37817172793247        2.63695670661842        22.5738040019924     
  0.322500000000000     
   3.36036046357373        2.67655711793638        22.4461150449390     
  0.325000000000000     
   3.34397576476810        2.71688857368606        22.3194951662392     
  0.327500000000000     
   3.32900044080762        2.75794980182314        22.1939495976158     
  0.330000000000000     
   3.31541770867134        2.79974070542365        22.0694837585267     
  0.332500000000000     
   3.30321121145727        2.84226232124818        21.9461032757986     
  0.335000000000000     
   3.29236503535057        2.88551677946148        21.8238140026460     
  0.337500000000000     
   3.28286372519244        2.92950726449941        21.7026220371656     
  0.340000000000000     
   3.27469229871255        2.97423797707056        21.5825337403937     
  0.342500000000000     
   3.26783625948576        3.01971409727450        21.4635557540048     
  0.345000000000000     
   3.26228160867198        3.06594174881490        21.3456950177304     
  0.347500000000000     
   3.25801485559584        3.11292796428108        21.2289587865682     
  0.350000000000000     
   3.25502302722088        3.16068065146792        21.1133546478487     
  0.352500000000000     
   3.25329367657087        3.20920856070075        20.9988905382243     
  0.355000000000000     
   3.25281489014846        3.25852125312791        20.8855747606386     
  0.357500000000000     
   3.25357529439937        3.30862906994105        20.7734160013326     
  0.360000000000000     
   3.25556406126816        3.35954310247996        20.6624233469413     
  0.362500000000000     
   3.25877091288914        3.41127516317591        20.5526063017281     
  0.365000000000000     
   3.26318612545398        3.46383775728509        20.4439748050051     
  0.367500000000000     
   3.26880053229516        3.51724405536059        20.3365392487817     
  0.370000000000000     
   3.27560552622227        3.57150786640963        20.2303104956828     
  0.372500000000000     
   3.28359306114574        3.62664361167964        20.1252998971745     
  0.375000000000000     
   3.29275565302049        3.68266629901507        20.0215193121330     
  0.377500000000000     
   3.30308638013958        3.73959149772420        19.9189811257903     
  0.380000000000000     
   3.31457888280578        3.79743531389294        19.8176982690880     
  0.382500000000000     
   3.32722736240650        3.85621436608085        19.7176842384668     
  0.385000000000000     
   3.34102657991574        3.91594576133184        19.6189531161213     
  0.387500000000000     
   3.35597185384368        3.97664707143015        19.5215195907420     
  0.390000000000000     
   3.37205905765315        4.03833630933007        19.4253989787690     
  0.392500000000000     
   3.38928461665922        4.10103190568535        19.3306072461781     
  0.395000000000000     
   3.40764550442631        4.16475268540211        19.2371610308177     
  0.397500000000000     
   3.42713923867490        4.22951784413695        19.1450776653130     
  0.400000000000000     
   3.44776387670738        4.29534692465926        19.0543752005539     
  0.402500000000000     
   3.46951801036087        4.36225979299449        18.9650724297765     
  0.405000000000000     
   3.49240076049185        4.43027661426274        18.8771889132518     
  0.407500000000000     
   3.51641177099586        4.49941782812436        18.7907450035873     
  0.410000000000000     
   3.54155120236272        4.56970412374151        18.7057618716490     
  0.412500000000000     
   3.56781972476576        4.64115641416227        18.6222615331063     
  0.415000000000000     
   3.59521851068101        4.71379581003074        18.5402668756007     
  0.417500000000000     
   3.62374922703017        4.78764359252388        18.4598016865372     
  0.420000000000000     
   3.65341402683877        4.86272118541284        18.3808906814912     
  0.422500000000000     
   3.68421554039850        4.93905012614345        18.3035595332252     
  0.425000000000000     
   3.71615686592044        5.01665203582746        18.2278349013011     
  0.427500000000000     
   3.74924155966355        5.09554858803289        18.1537444622749     
  0.430000000000000     
   3.78347362552015        5.17576147625842        18.0813169404523     
  0.432500000000000     
   3.81885750403802        5.25731237997365        18.0105821391826     
  0.435000000000000     
   3.85539806085603        5.34022292910342        17.9415709726625     
  0.437500000000000     
   3.89310057452780        5.42451466683089        17.8743154982151     
  0.440000000000000     
   3.93197072370546        5.51020901059081        17.8088489490062     
  0.442500000000000     
   3.97201457365297        5.59732721112046        17.7452057671532     
  0.445000000000000     
   4.01323856205584        5.68589030943258        17.6834216371741     
  0.447500000000000     
   4.05564948409181        5.77591909157085        17.6235335197198     
  0.450000000000000     
   4.09925447672393        5.86743404100496        17.5655796855237     
  0.452500000000000     
   4.14406100217542        5.96045528851900        17.5095997494956     
  0.455000000000000     
   4.19007683054257        6.05500255944343        17.4556347048770     
  0.457500000000000     
   4.23731002149967        6.15109511807769        17.4037269573684     
  0.460000000000000     
   4.28576890504690        6.24875170914759        17.3539203591262     
  0.462500000000000     
   4.33546206124982        6.34799049613849        17.3062602425183     
  0.465000000000000     
   4.38639829891606        6.44882899634298        17.2607934535154     
  0.467500000000000     
   4.43858663315248        6.55128401245935        17.2175683845835     
  0.470000000000000     
   4.49203626174305        6.65537156057528        17.1766350069296     
  0.472500000000000     
   4.54675654028541        6.76110679436972        17.1380449019387     
  0.475000000000000     
   4.60275695602114        6.86850392536496        17.1018512916265     
  0.477500000000000     
   4.66004710029260        6.97757613906068        17.0681090679159     
  0.480000000000000     
   4.71863663955623        7.08833550678184        17.0368748205284     
  0.482500000000000     
   4.77853528488032        7.20079289307369        17.0082068632660     
  0.485000000000000     
   4.83975275985246        7.31495785847899        16.9821652584378     
  0.487500000000000     
   4.90229876682003        7.43083855753556        16.9588118391688     
  0.490000000000000     
   4.96618295138488        7.54844163183645        16.9382102293056     
  0.492500000000000     
   5.03141486507149        7.66777209800039        16.9204258606148     
  0.495000000000000     
   5.09800392608626        7.78883323040684        16.9055259869429     
  0.497500000000000     
   5.16595937808396        7.91162643855852        16.8935796949889     
  0.500000000000000     
   5.23529024685650        8.03615113894402        16.8846579113103     
  0.502500000000000     
   5.30600529485787        8.16240462128530        16.8788334051612     
  0.505000000000000     
   5.37811297347884        8.29038190906877        16.8761807867341     
  0.507500000000000     
   5.45162137298475        8.42007561427487        16.8767765003476     
  0.510000000000000     
   5.52653817003002        8.55147578623986        16.8806988120977     
  0.512500000000000     
   5.60287057266357        8.68456975460503        16.8880277914567     
  0.515000000000000     
   5.68062526274110        8.81934196633279        16.8988452862789     
  0.517500000000000     
   5.75980833566144        8.95577381679676        16.9132348906397     
  0.520000000000000     
   5.84042523734745        9.09384347498357        16.9312819049042     
  0.522500000000000     
   5.92248069839474        9.23352570287924        16.9530732873934     
  0.525000000000000     
   6.00597866531588        9.37479166915065        16.9786975969836     
  0.527500000000000     
   6.09092222881290        9.51760875727603        17.0082449259464     
  0.530000000000000     
   6.17731354901657        9.66194036832468        17.0418068223069     
  0.532500000000000     
   6.26515377763842        9.80774571863846        17.0794762009704     
  0.535000000000000     
   6.35444297698950        9.95497963272342        17.1213472428417     
  0.537500000000000     
   6.44518003582944        10.1035923317225        17.1675152811341     
  0.540000000000000     
   6.53736258202018        10.2535292179063        17.2180766740469     
  0.542500000000000     
   6.63098689197132        10.4047306556926        17.2731286629677     
  0.545000000000000     
   6.72604779687742        10.5571317497819        17.3327692153407     
  0.547500000000000     
   6.82253858576372        10.7106621210834        17.3970968513314     
  0.550000000000000     
   6.92045090537354        10.8652456811920        17.4662104534095     
  0.552500000000000     
   7.01977465695020        11.0208004062758        17.5402090579719     
  0.555000000000000     
   7.12049788998710        11.1772381113356        17.6191916281315     
  0.557500000000000     
   7.22260669304316        11.3344642259038        17.7032568068105     
  0.560000000000000     
   7.32608508174592        11.4923775723650        17.7925026492968     
  0.562500000000000     
   7.43091488413250        11.6508701482006        17.8870263344511     
  0.565000000000000     
   7.53707562350820        11.8098269135818        17.9869238537945     
  0.567500000000000     
   7.64454439903534        11.9691255858650        18.0922896777530     
  0.570000000000000     
   7.75329576429930        12.1286364426777        18.2032163984039     
  0.572500000000000     
   7.86330160413605        12.2882221354168        18.3197943481401     
  0.575000000000000     
   7.97453101004540        12.4477375151195        18.4421111937667     
  0.577500000000000     
   8.08695015455594        12.6070294728105        18.5702515056439     
  0.580000000000000     
   8.20052216495255        12.7659367965615        18.7042963016208     
  0.582500000000000     
   8.31520699682403        12.9242900476449        18.8443225656432     
  0.585000000000000     
   8.43096130793759        13.0819114582921        18.9904027410808     
  0.587500000000000     
   8.54773833299802        13.2386148536993        19.1426041989998     
  0.590000000000000     
   8.66548775990255        13.3942056010474        19.3009886818103     
  0.592500000000000     
   8.78415560815663        13.5484805884115        19.4656117229380     
  0.595000000000000     
   8.90368411017234        13.7012282365405        19.6365220434183     
  0.597500000000000     
   9.02401159622729        13.8522285465708        19.8137609265759     
  0.600000000000000     
   9.14507238391991        14.0012531868060        19.9973615722429     
  0.602500000000000     
   9.26679667301363        14.1480656217421        20.1873484322795     
  0.605000000000000     
   9.38911044661997        14.2924212865384        20.3837365294949     
  0.607500000000000     
   9.51193537972542        14.4340678101292        20.5865307624144     
  0.610000000000000     
   9.63518875612122        14.5727452901323        20.7957251987144     
  0.612500000000000     
   9.75878339484566        14.7081866226367        21.0113023605293     
  0.615000000000000     
   9.88262758729622        14.8401178898384        21.2332325052387     
  0.617500000000000     
   10.0066250462115        14.9682588083368        21.4614729057509     
  0.620000000000000     
   10.1306748677606        15.0923232406995        21.6959671347208     
  0.622500000000000     
   10.2546715080079        15.2120197726509        21.9366443575571     
  0.625000000000000     
   10.3785047750445        15.3270523579313        22.1834186394945     
  0.627500000000000     
   10.5020598380934        15.4371210325095        22.4361882724134     
  0.630000000000000     
   10.6252172548954        15.5419226994102        22.6948351274853     
  0.632500000000000     
   10.7478530186818        15.6411519849348        22.9592240400944     
  0.635000000000000     
   10.8698386260145        15.7345021665102        23.2292022338276     
  0.637500000000000     
   10.9910411667452        15.8216661717967        23.5045987906304     
  0.640000000000000     
   11.1113234372949        15.9023376480207        23.7852241744843     
  0.642500000000000     
   11.2305440783910        15.9762120997771        24.0708698161634     
  0.645000000000000     
   11.3485577383205        16.0429880927676        24.3613077667648     
  0.647500000000000     
   11.4652152626554        16.1023685201160        24.6562904277729     
  0.650000000000000     
   11.5803639112932        16.1540619270332        24.9555503653939     
  0.652500000000000     
   11.6938476035148        16.1977838886944        25.2588002167879     
  0.655000000000000     
   11.8055071916105        16.2332584352649        25.5657326956096     
  0.657500000000000     
   11.9151807634470        16.2602195170572        25.8760207039491     
  0.660000000000000     
   12.0227039741545        16.2784125018557        26.1893175573270     
  0.662500000000000     
   12.1279104069016        16.2875956954995        26.5052573288401     
  0.665000000000000     
   12.2306319624935        16.2875418759031        26.8234553178773     
  0.667500000000000     
   12.3306992772829        16.2780398298184        27.1435086480151     
  0.670000000000000     
   12.4279421686209        16.2588958808260        27.4649969977748     
  0.672500000000000     
   12.5221901068021        16.2299353963102        27.7874834668692     
  0.675000000000000     
   12.6132727121705        16.1910042605261        28.1105155793943     
  0.677500000000000     
   12.7010202757636        16.1419703003411        28.4336264241464     
  0.680000000000000     
   12.7852643015751        16.0827246498361        28.7563359308620     
  0.682500000000000     
   12.8658380682167        16.0131830397038        29.0781522797196     
  0.685000000000000     
   12.9425772074698        15.9332869972987        29.3985734399073     
  0.687500000000000     
   13.0153202969297        15.8430049432869        29.7170888314859     
  0.690000000000000     
   13.0839094636676        15.7423331711326        30.0331811031636     
  0.692500000000000     
   13.1481909955829        15.6312966961397        30.3463280169937     
  0.695000000000000     
   13.2080159568750        15.5099499614568        30.6560044294164     
  0.697500000000000     
   13.2632408038557        15.3783773893508        30.9616843565295     
  0.700000000000000     
   13.3137279971391        15.2366937671558        31.2628431100146     
  0.702500000000000     
   13.3593466060982        15.0850444586010        31.5589594887944     
  0.705000000000000     
   13.3999729013690        14.9236054327132        31.8495180102820     
  0.707500000000000     
   13.4354909311113        14.7525831041498        32.1340111640294     
  0.710000000000000     
   13.4657930767158        14.5722139806340        32.4119416697224     
  0.712500000000000     
   13.4907805836678        14.3827641151143        32.6828247208150     
  0.715000000000000     
   13.5103640633514        14.1845283623195        32.9461901946796     
  0.717500000000000     
   13.5244639616997        13.9778294415081        33.2015848099781     
  0.720000000000000     
   13.5330109907694        13.7630168093783        33.4485742120492     
  0.722500000000000     
   13.5359465195405        13.5404653492738        33.6867449674644     
  0.725000000000000     
   13.5332229205084        13.3105738849635        33.9157064495322     
  0.727500000000000     
   13.5248038689549        13.0737635293456        34.1350925974231     
  0.730000000000000     
   13.5106645921384        12.8304758803912        34.3445635327350     
  0.732500000000000     
   13.4907920660398        12.5811710784715        34.5438070187130     
  0.735000000000000     
   13.4651851577297        12.3263257408631        34.7325397489470     
  0.737500000000000     
   13.4338547118774        12.0664307906767        34.9105084541852     
  0.740000000000000     
   13.3968235804011        11.8019891986683        35.0774908178775     
  0.742500000000000     
   13.3541265947517        11.5335136573623        35.2332961931787     
  0.745000000000000     
   13.3058104808223        11.2615242076076        35.3777661163573     
  0.747500000000000     
   13.2519337169819        10.9865458381043        35.5107746138283     
  0.750000000000000     
   13.1925663362235        10.7091060785682        35.6322283023334     
  0.752500000000000     
   13.1277896739071        10.4297326070407        35.7420662840704     
  0.755000000000000     
   13.0576960630375        10.1489508914159        35.8402598408055     
  0.757500000000000     
   12.9823884794615        9.86728188454810        35.9268119331401     
  0.760000000000000     