VARIABLES = "X", "Y", "U"
 ZONE I=          51 , J=          51 ,DATAPACKING=POINT
            -4.0000000            -4.0000000            26.0618921
            -4.0000000            -3.8400000            23.7267588
            -4.0000000            -3.6800000            21.6003611
            -4.0000000            -3.5200000            19.6674411
            -4.0000000            -3.3600000            17.9135228
            -4.0000000            -3.2000000            16.3249307
            -4.0000000            -3.0400000            14.8888056
            -4.0000000            -2.8800000            13.5931165
            -4.0000000            -2.7200000            12.4266670
            -4.0000000            -2.5600000            11.3790920
            -4.0000000            -2.4000000            10.4408455
            -4.0000000            -2.2400000             9.6031753
            -4.0000000            -2.0800000             8.8580859
            -4.0000000            -1.9200000             8.1982874
            -4.0000000            -1.7600000             7.6171354
            -4.0000000            -1.6000000             7.1085625
            -4.0000000            -1.4400000             6.6670098
            -4.0000000            -1.2800000             6.2873652
            -4.0000000            -1.1200000             5.9649173
            -4.0000000            -0.9600000             5.6953326
            -4.0000000            -0.8000000             5.4746621
            -4.0000000            -0.6400000             5.2993769
            -4.0000000            -0.4800000             5.1664300
            -4.0000000            -0.3200000             5.0733331
            -4.0000000            -0.1600000             5.0182368
            -4.0000000             0.0000000             5.0000000
            -4.0000000             0.1600000             5.0182368
            -4.0000000             0.3200000             5.0733331
            -4.0000000             0.4800000             5.1664300
            -4.0000000             0.6400000             5.2993769
            -4.0000000             0.8000000             5.4746621
            -4.0000000             0.9600000             5.6953326
            -4.0000000             1.1200000             5.9649173
            -4.0000000             1.2800000             6.2873652
            -4.0000000             1.4400000             6.6670098
            -4.0000000             1.6000000             7.1085625
            -4.0000000             1.7600000             7.6171354
            -4.0000000             1.9200000             8.1982874
            -4.0000000             2.0800000             8.8580859
            -4.0000000             2.2400000             9.6031753
            -4.0000000             2.4000000            10.4408455
            -4.0000000             2.5600000            11.3790920
            -4.0000000             2.7200000            12.4266670
            -4.0000000             2.8800000            13.5931165
            -4.0000000             3.0400000            14.8888056
            -4.0000000             3.2000000            16.3249307
            -4.0000000             3.3600000            17.9135228
            -4.0000000             3.5200000            19.6674411
            -4.0000000             3.6800000            21.6003611
            -4.0000000             3.8400000            23.7267588
            -4.0000000             4.0000000            26.0618921
            -3.9000000            -4.0000000            24.7211894
            -3.9000000            -3.8400000            22.4509674
            -3.9000000            -3.6800000            20.3867284
            -3.9000000            -3.5200000            18.5131641
            -3.9000000            -3.3600000            16.8157499
            -3.9000000            -3.2000000            15.2807668
            -3.9000000            -3.0400000            13.8953203
            -3.9000000            -2.8800000            12.6473565
            -3.9000000            -2.7200000            11.5256708
            -3.9000000            -2.5600000            10.5199093
            -3.9000000            -2.4000000             9.6205572
            -3.9000000            -2.2400000             8.8189161
            -3.9000000            -2.0800000             8.1070641
            -3.9000000            -1.9200000             7.4778030
            -3.9000000            -1.7600000             6.9245909
            -3.9000000            -1.6000000             6.4414653
            -3.9000000            -1.4400000             6.0229639
            -3.9000000            -1.2800000             5.6640512
            -3.9000000            -1.1200000             5.3600623
            -3.9000000            -0.9600000             5.1066735
            -3.9000000            -0.8000000             4.8999074
            -3.9000000            -0.6400000             4.7361742
            -3.9000000            -0.4800000             4.6123444
            -3.9000000            -0.3200000             4.5258413
            -3.9000000            -0.1600000             4.4747372
            -3.9000000             0.0000000             4.4578375
            -3.9000000             0.1600000             4.4747372
            -3.9000000             0.3200000             4.5258413
            -3.9000000             0.4800000             4.6123444
            -3.9000000             0.6400000             4.7361742
            -3.9000000             0.8000000             4.8999074
            -3.9000000             0.9600000             5.1066735
            -3.9000000             1.1200000             5.3600623
            -3.9000000             1.2800000             5.6640512
            -3.9000000             1.4400000             6.0229639
            -3.9000000             1.6000000             6.4414653
            -3.9000000             1.7600000             6.9245909
            -3.9000000             1.9200000             7.4778030
            -3.9000000             2.0800000             8.1070641
            -3.9000000             2.2400000             8.8189161
            -3.9000000             2.4000000             9.6205572
            -3.9000000             2.5600000            10.5199093
            -3.9000000             2.7200000            11.5256708
            -3.9000000             2.8800000            12.6473565
            -3.9000000             3.0400000            13.8953203
            -3.9000000             3.2000000            15.2807668
            -3.9000000             3.3600000            16.8157499
            -3.9000000             3.5200000            18.5131641
            -3.9000000             3.6800000            20.3867284
            -3.9000000             3.8400000            22.4509674
            -3.9000000             4.0000000            24.7211894
            -3.8000000            -4.0000000            23.4520002
            -3.8000000            -3.8400000            21.2448082
            -3.8000000            -3.6800000            19.2409434
            -3.8000000            -3.5200000            17.4250414
            -3.8000000            -3.3600000            15.7825230
            -3.8000000            -3.2000000            14.2996185
            -3.8000000            -3.0400000            12.9633909
            -3.8000000            -2.8800000            11.7617554
            -3.8000000            -2.7200000            10.6834929
            -3.8000000            -2.5600000             9.7182544
            -3.8000000            -2.4000000             8.8565533
            -3.8000000            -2.2400000             8.0897438
            -3.8000000            -2.0800000             7.4099813
            -3.8000000            -1.9200000             6.8101656
            -3.8000000            -1.7600000             6.2838680
            -3.8000000            -1.6000000             5.8252442
            -3.8000000            -1.4400000             5.4289427
            -3.8000000            -1.2800000             5.0900179
            -3.8000000            -1.1200000             4.8038608
            -3.8000000            -0.9600000             4.5661605
            -3.8000000            -0.8000000             4.3729074
            -3.8000000            -0.6400000             4.2204399
            -3.8000000            -0.4800000             4.1055305
            -3.8000000            -0.3200000             4.0254968
            -3.8000000            -0.1600000             3.9783173
            -3.8000000             0.0000000             3.9627333
            -3.8000000             0.1600000             3.9783173
            -3.8000000             0.3200000             4.0254968
            -3.8000000             0.4800000             4.1055305
            -3.8000000             0.6400000             4.2204399
            -3.8000000             0.8000000             4.3729074
            -3.8000000             0.9600000             4.5661605
            -3.8000000             1.1200000             4.8038608
            -3.8000000             1.2800000             5.0900179
            -3.8000000             1.4400000             5.4289427
            -3.8000000             1.6000000             5.8252442
            -3.8000000             1.7600000             6.2838680
            -3.8000000             1.9200000             6.8101656
            -3.8000000             2.0800000             7.4099813
            -3.8000000             2.2400000             8.0897438
            -3.8000000             2.4000000             8.8565533
            -3.8000000             2.5600000             9.7182544
            -3.8000000             2.7200000            10.6834929
            -3.8000000             2.8800000            11.7617554
            -3.8000000             3.0400000            12.9633909
            -3.8000000             3.2000000            14.2996185
            -3.8000000             3.3600000            15.7825230
            -3.8000000             3.5200000            17.4250414
            -3.8000000             3.6800000            19.2409434
            -3.8000000             3.8400000            21.2448082
            -3.8000000             4.0000000            23.4520002
            -3.7000000            -4.0000000            22.2512976
            -3.7000000            -3.8400000            20.1052612
            -3.7000000            -3.6800000            18.1599956
            -3.7000000            -3.5200000            16.4000755
            -3.7000000            -3.3600000            14.8108605
            -3.7000000            -3.2000000            13.3785228
            -3.7000000            -3.0400000            12.0900744
            -3.7000000            -2.8800000            10.9333910
            -3.7000000            -2.7200000             9.8972304
            -3.7000000            -2.5600000             8.9712418
            -3.7000000            -2.4000000             8.1459618
            -3.7000000            -2.2400000             7.4127954
            -3.7000000            -2.0800000             6.7639772
            -3.7000000            -1.9200000             6.1925122
            -3.7000000            -1.7600000             5.6920956
            -3.7000000            -1.6000000             5.2570166
            -3.7000000            -1.4400000             4.8820515
            -3.7000000            -1.2800000             4.5623606
            -3.7000000            -1.1200000             4.2934025
            -3.7000000            -0.9600000             4.0708842
            -3.7000000            -0.8000000             3.8907598
            -3.7000000            -0.6400000             3.7492838
            -3.7000000            -0.4800000             3.6431124
            -3.7000000            -0.3200000             3.5694367
            -3.7000000            -0.1600000             3.5261236
            -3.7000000             0.0000000             3.5118375
            -3.7000000             0.1600000             3.5261236
            -3.7000000             0.3200000             3.5694367
            -3.7000000             0.4800000             3.6431124
            -3.7000000             0.6400000             3.7492838
            -3.7000000             0.8000000             3.8907598
            -3.7000000             0.9600000             4.0708842
            -3.7000000             1.1200000             4.2934025
            -3.7000000             1.2800000             4.5623606
            -3.7000000             1.4400000             4.8820515
            -3.7000000             1.6000000             5.2570166
            -3.7000000             1.7600000             5.6920956
            -3.7000000             1.9200000             6.1925122
            -3.7000000             2.0800000             6.7639772
            -3.7000000             2.2400000             7.4127954
            -3.7000000             2.4000000             8.1459618
            -3.7000000             2.5600000             8.9712418
            -3.7000000             2.7200000             9.8972304
            -3.7000000             2.8800000            10.9333910
            -3.7000000             3.0400000            12.0900744
            -3.7000000             3.2000000            13.3785228
            -3.7000000             3.3600000            14.8108605
            -3.7000000             3.5200000            16.4000755
            -3.7000000             3.6800000            18.1599956
            -3.7000000             3.8400000            20.1052612
            -3.7000000             4.0000000            22.2512976
            -3.6000000            -4.0000000            21.1161417
            -3.6000000            -3.8400000            19.0293912
            -3.6000000            -3.6800000            17.1409590
            -3.6000000            -3.5200000            15.4353535
            -3.6000000            -3.3600000            13.8978662
            -3.6000000            -3.2000000            12.5146030
            -3.6000000            -3.0400000            11.2725158
            -3.6000000            -2.8800000            10.1594310
            -3.6000000            -2.7200000             9.1640737
            -3.6000000            -2.5600000             8.2760824
            -3.6000000            -2.4000000             7.4860102
            -3.6000000            -2.2400000             6.7853096
            -3.6000000            -2.0800000             6.1662956
            -3.6000000            -1.9200000             5.6220841
            -3.6000000            -1.7600000             5.1465066
            -3.6000000            -1.6000000             4.7340023
            -3.6000000            -1.4400000             4.3794951
            -3.6000000            -1.2800000             4.0782708
            -3.6000000            -1.1200000             3.8258711
            -3.6000000            -0.9600000             3.6180278
            -3.6000000            -0.8000000             3.4506553
            -3.6000000            -0.6400000             3.3199100
            -3.6000000            -0.4800000             3.2223103
            -3.6000000            -0.3200000             3.1548968
            -3.6000000            -0.1600000             3.1154023
            -3.6000000             0.0000000             3.1024000
            -3.6000000             0.1600000             3.1154023
            -3.6000000             0.3200000             3.1548968
            -3.6000000             0.4800000             3.2223103
            -3.6000000             0.6400000             3.3199100
            -3.6000000             0.8000000             3.4506553
            -3.6000000             0.9600000             3.6180278
            -3.6000000             1.1200000             3.8258711
            -3.6000000             1.2800000             4.0782708
            -3.6000000             1.4400000             4.3794951
            -3.6000000             1.6000000             4.7340023
            -3.6000000             1.7600000             5.1465066
            -3.6000000             1.9200000             5.6220841
            -3.6000000             2.0800000             6.1662956
            -3.6000000             2.2400000             6.7853096
            -3.6000000             2.4000000             7.4860102
            -3.6000000             2.5600000             8.2760824
            -3.6000000             2.7200000             9.1640737
            -3.6000000             2.8800000            10.1594310
            -3.6000000             3.0400000            11.2725158
            -3.6000000             3.2000000            12.5146030
            -3.6000000             3.3600000            13.8978662
            -3.6000000             3.5200000            15.4353535
            -3.6000000             3.6800000            17.1409590
            -3.6000000             3.8400000            19.0293912
            -3.6000000             4.0000000            21.1161417
            -3.5000000            -4.0000000            20.0436781
            -3.5000000            -3.8400000            18.0143480
            -3.5000000            -3.6800000            16.1809915
            -3.5000000            -3.5200000            14.5280455
            -3.5000000            -3.3600000            13.0407268
            -3.5000000            -3.2000000            11.7050666
            -3.5000000            -3.0400000            10.5079462
            -3.5000000            -2.8800000             9.4371319
            -3.5000000            -2.7200000             8.4813048
            -3.5000000            -2.5600000             7.6300820
            -3.5000000            -2.4000000             6.8740246
            -3.5000000            -2.2400000             6.2046273
            -3.5000000            -2.0800000             5.6142843
            -3.5000000            -1.9200000             5.0962283
            -3.5000000            -1.7600000             4.6444390
            -3.5000000            -1.6000000             4.2535241
            -3.5000000            -1.4400000             3.9185785
            -3.5000000            -1.2800000             3.6350371
            -3.5000000            -1.1200000             3.3985443
            -3.5000000            -0.9600000             3.2048669
            -3.5000000            -0.8000000             3.0498769
            -3.5000000            -0.6400000             2.9296164
            -3.5000000            -0.4800000             2.8404404
            -3.5000000            -0.3200000             2.7792103
            -3.5000000            -0.1600000             2.7434992
            -3.5000000             0.0000000             2.7317708
            -3.5000000             0.1600000             2.7434992
            -3.5000000             0.3200000             2.7792103
            -3.5000000             0.4800000             2.8404404
            -3.5000000             0.6400000             2.9296164
            -3.5000000             0.8000000             3.0498769
            -3.5000000             0.9600000             3.2048669
            -3.5000000             1.1200000             3.3985443
            -3.5000000             1.2800000             3.6350371
            -3.5000000             1.4400000             3.9185785
            -3.5000000             1.6000000             4.2535241
            -3.5000000             1.7600000             4.6444390
            -3.5000000             1.9200000             5.0962283
            -3.5000000             2.0800000             5.6142843
            -3.5000000             2.2400000             6.2046273
            -3.5000000             2.4000000             6.8740246
            -3.5000000             2.5600000             7.6300820
            -3.5000000             2.7200000             8.4813048
            -3.5000000             2.8800000             9.4371319
            -3.5000000             3.0400000            10.5079462
            -3.5000000             3.2000000            11.7050666
            -3.5000000             3.3600000            13.0407268
            -3.5000000             3.5200000            14.5280455
            -3.5000000             3.6800000            16.1809915
            -3.5000000             3.8400000            18.0143480
            -3.5000000             4.0000000            20.0436781
            -3.4000000            -4.0000000            19.0311380
            -3.4000000            -3.8400000            17.0573646
            -3.4000000            -3.6800000            15.2773327
            -3.4000000            -3.5200000            13.6754030
            -3.4000000            -3.3600000            12.2367105
            -3.4000000            -3.2000000            10.9472027
            -3.4000000            -3.0400000             9.7936800
            -3.4000000            -2.8800000             8.7638361
            -3.4000000            -2.7200000             7.8462951
            -3.4000000            -2.5600000             7.0306401
            -3.4000000            -2.4000000             6.3074290
            -3.4000000            -2.2400000             5.6681909
            -3.4000000            -2.0800000             5.1053965
            -3.4000000            -1.9200000             4.6123990
            -3.4000000            -1.7600000             4.1833383
            -3.4000000            -1.6000000             3.8130107
            -3.4000000            -1.4400000             3.4967085
            -3.4000000            -1.2800000             3.2300454
            -3.4000000            -1.1200000             3.0087934
            -3.4000000            -0.9600000             2.8287686
            -3.4000000            -0.8000000             2.6857986
            -3.4000000            -0.6400000             2.5757932
            -3.4000000            -0.4800000             2.4949140
            -3.4000000            -0.3200000             2.4398083
            -3.4000000            -0.1600000             2.4078591
            -3.4000000             0.0000000             2.3974000
            -3.4000000             0.1600000             2.4078591
            -3.4000000             0.3200000             2.4398083
            -3.4000000             0.4800000             2.4949140
            -3.4000000             0.6400000             2.5757932
            -3.4000000             0.8000000             2.6857986
            -3.4000000             0.9600000             2.8287686
            -3.4000000             1.1200000             3.0087934
            -3.4000000             1.2800000             3.2300454
            -3.4000000             1.4400000             3.4967085
            -3.4000000             1.6000000             3.8130107
            -3.4000000             1.7600000             4.1833383
            -3.4000000             1.9200000             4.6123990
            -3.4000000             2.0800000             5.1053965
            -3.4000000             2.2400000             5.6681909
            -3.4000000             2.4000000             6.3074290
            -3.4000000             2.5600000             7.0306401
            -3.4000000             2.7200000             7.8462951
            -3.4000000             2.8800000             8.7638361
            -3.4000000             3.0400000             9.7936800
            -3.4000000             3.2000000            10.9472027
            -3.4000000             3.3600000            12.2367105
            -3.4000000             3.5200000            13.6754030
            -3.4000000             3.6800000            15.2773327
            -3.4000000             3.8400000            17.0573646
            -3.4000000             4.0000000            19.0311380
            -3.3000000            -4.0000000            18.0758376
            -3.3000000            -3.8400000            16.1557567
            -3.3000000            -3.6800000            14.4273030
            -3.3000000            -3.5200000            12.8747565
            -3.3000000            -3.3600000            11.4831640
            -3.3000000            -3.2000000            10.2383801
            -3.3000000            -3.0400000             9.1271126
            -3.3000000            -2.8800000             8.1369693
            -3.3000000            -2.7200000             7.2565028
            -3.3000000            -2.5600000             6.4752472
            -3.3000000            -2.4000000             5.7837436
            -3.3000000            -2.2400000             5.1735443
            -3.3000000            -2.0800000             4.6371911
            -3.3000000            -1.9200000             4.1681590
            -3.3000000            -1.7600000             3.7607592
            -3.3000000            -1.6000000             3.4099981
            -3.3000000            -1.4400000             3.1113961
            -3.3000000            -1.2800000             2.8607804
            -3.3000000            -1.1200000             2.6540836
            -3.3000000            -0.9600000             2.4871905
            -3.3000000            -0.8000000             2.3558847
            -3.3000000            -0.6400000             2.2559229
            -3.3000000            -0.4800000             2.1832372
            -3.3000000            -0.3200000             2.1342196
            -3.3000000            -0.1600000             2.1060264
            -3.3000000             0.0000000             2.0968375
            -3.3000000             0.1600000             2.1060264
            -3.3000000             0.3200000             2.1342196
            -3.3000000             0.4800000             2.1832372
            -3.3000000             0.6400000             2.2559229
            -3.3000000             0.8000000             2.3558847
            -3.3000000             0.9600000             2.4871905
            -3.3000000             1.1200000             2.6540836
            -3.3000000             1.2800000             2.8607804
            -3.3000000             1.4400000             3.1113961
            -3.3000000             1.6000000             3.4099981
            -3.3000000             1.7600000             3.7607592
            -3.3000000             1.9200000             4.1681590
            -3.3000000             2.0800000             4.6371911
            -3.3000000             2.2400000             5.1735443
            -3.3000000             2.4000000             5.7837436
            -3.3000000             2.5600000             6.4752472
            -3.3000000             2.7200000             7.2565028
            -3.3000000             2.8800000             8.1369693
            -3.3000000             3.0400000             9.1271126
            -3.3000000             3.2000000            10.2383801
            -3.3000000             3.3600000            11.4831640
            -3.3000000             3.5200000            12.8747565
            -3.3000000             3.6800000            14.4273030
            -3.3000000             3.8400000            16.1557567
            -3.3000000             4.0000000            18.0758376
            -3.2000000            -4.0000000            17.1751778
            -3.2000000            -3.8400000            15.3069221
            -3.2000000            -3.6800000            13.6283024
            -3.2000000            -3.5200000            12.1235146
            -3.2000000            -3.3600000            10.7775108
            -3.2000000            -3.2000000             9.5760437
            -3.2000000            -3.0400000             8.5057167
            -3.2000000            -2.8800000             7.5540374
            -3.2000000            -2.7200000             6.7094699
            -3.2000000            -2.5600000             5.9614827
            -3.2000000            -2.4000000             5.3005828
            -3.2000000            -2.2400000             4.7183318
            -3.2000000            -2.0800000             4.2073330
            -3.2000000            -1.9200000             3.7611817
            -3.2000000            -1.7600000             3.3743691
            -3.2000000            -1.6000000             3.0421338
            -3.2000000            -1.4400000             2.7602585
            -3.2000000            -1.2800000             2.5248273
            -3.2000000            -1.1200000             2.3319740
            -3.2000000            -0.9600000             2.1776804
            -3.2000000            -0.8000000             2.0576888
            -3.2000000            -0.6400000             1.9675792
            -3.2000000            -0.4800000             1.9030105
            -3.2000000            -0.3200000             1.8600700
            -3.2000000            -0.1600000             1.8356450
            -3.2000000             0.0000000             1.8277333
            -3.2000000             0.1600000             1.8356450
            -3.2000000             0.3200000             1.8600700
            -3.2000000             0.4800000             1.9030105
            -3.2000000             0.6400000             1.9675792
            -3.2000000             0.8000000             2.0576888
            -3.2000000             0.9600000             2.1776804
            -3.2000000             1.1200000             2.3319740
            -3.2000000             1.2800000             2.5248273
            -3.2000000             1.4400000             2.7602585
            -3.2000000             1.6000000             3.0421338
            -3.2000000             1.7600000             3.3743691
            -3.2000000             1.9200000             3.7611817