 VARIABLES = "t", "u"
 ZONE DATAPACKING=POINT, I=         101
  0.000000000000000E+000  0.000000000000000E+000
  5.000000000000000E-002   1.87494140258806     
  0.100000000000000        3.74906265380013     
  0.150000000000000        5.62025700338924     
  0.200000000000000        7.48502374000929     
  0.250000000000000        9.33849270006427     
  0.300000000000000        11.1744706002973     
  0.350000000000000        12.9855159937821     
  0.400000000000000        14.7630490616490     
  0.450000000000000        16.4975015628419     
  0.500000000000000        18.1785110223446     
  0.550000000000000        19.7951616104627     
  0.600000000000000        21.3362721376541     
  0.650000000000000        22.7907291718610     
  0.700000000000000        24.1478605190124     
  0.750000000000000        25.3978412670543     
  0.800000000000000        26.5321213910350     
  0.850000000000000        27.5438607006284     
  0.900000000000000        28.4283538672887     
  0.950000000000000        29.1834256126719     
   1.00000000000000        29.8097741129498     
   1.05000000000000        30.3112395264731     
   1.10000000000000        30.6949745319429     
   1.15000000000000        30.9714950945553     
   1.20000000000000        31.1545925372250     
   1.25000000000000        31.2610924933318     
   1.30000000000000        31.3104524751981     
   1.35000000000000        31.3241975143109     
   1.40000000000000        31.3252023905224     
   1.45000000000000        31.3368390026452     
   1.50000000000000        31.3820179344061     
   1.55000000000000        31.4821635978625     
   1.60000000000000        31.6561717424286     
   1.65000000000000        31.9194057812513     
   1.70000000000000        32.2827934671755     
   1.75000000000000        32.7520871508977     
   1.80000000000000        33.3273484941463     
   1.85000000000000        34.0027116064607     
   1.90000000000000        34.7664669140286     
   1.95000000000000        35.6014917837394     
   2.00000000000000        36.4860335402194     
   2.05000000000000        37.3948269748936     
   2.10000000000000        38.3005031170872     
   2.15000000000000        39.1752206525210     
   2.20000000000000        39.9924279534772     
   2.25000000000000        40.7286444011128     
   2.30000000000000        41.3651366935378     
   2.35000000000000        41.8893610907708     
   2.40000000000000        42.2960475709813     
   2.45000000000000        42.5878175459448     
   2.50000000000000        42.7752531684098     
   2.55000000000000        42.8763724595733     
   2.60000000000000        42.9155085621897     
   2.65000000000000        42.9216404513462     
   2.70000000000000        42.9262726041924     
   2.75000000000000        42.9610080023378     
   2.80000000000000        43.0549976887103     
   2.85000000000000        43.2324763401643     
   2.90000000000000        43.5106029924014     
   2.95000000000000        43.8978163336556     
   3.00000000000000        44.3928836147976     
   3.05000000000000        44.9847718842311     
   3.10000000000000        45.6534027533236     
   3.15000000000000        46.3712721618165     
   3.20000000000000        47.1058314520972     
   3.25000000000000        47.8224436766139     
   3.30000000000000        48.4876583278178     
   3.35000000000000        49.0724972446604     
   3.40000000000000        49.5554217405960     
   3.45000000000000        49.9246612213395     
   3.50000000000000        50.1796288264199     
   3.55000000000000        50.3312283221630     
   3.60000000000000        50.4009629871477     
   3.65000000000000        50.4188821407178     
   3.70000000000000        50.4205316975886     
   3.75000000000000        50.4431971052616     
   3.80000000000000        50.5218251837608     
   3.85000000000000        50.6850720107504     
   3.90000000000000        50.9519365282146     
   3.95000000000000        51.3293982954155     
   4.00000000000000        51.8113832009580     
   4.05000000000000        52.3792401367269     
   4.10000000000000        53.0037383383624     
   4.15000000000000        53.6484084882664     
   4.20000000000000        54.2738734629939     
   4.25000000000000        54.8426703773399     
   4.30000000000000        55.3239757383828     
   4.35000000000000        55.6976261755838     
   4.40000000000000        55.9568864165204     
   4.45000000000000        56.1095520283813     
   4.50000000000000        56.1771743510179     
   4.55000000000000        56.1924364444100     
   4.60000000000000        56.1949614537116     
   4.65000000000000        56.2260640951768     
   4.70000000000000        56.3231279460593     
   4.75000000000000        56.5143772617608     
   4.80000000000000        56.8147936573605     
   4.85000000000000        57.2238005005766     
   4.90000000000000        57.7251123620610     
   4.95000000000000        58.2888499719310     
   5.00000000000000        58.8756923131522     
