 VARIABLES = "t", "u"
 ZONE DATAPACKING=POINT, I=         101
  0.000000000000000E+000  0.000000000000000E+000
  5.000000000000000E-002 -1.874941406250000E-002
  0.100000000000000      -7.498476646727487E-002
  0.150000000000000      -0.168635765751269     
  0.200000000000000      -0.299519769820295     
  0.250000000000000      -0.467285996972603     
  0.300000000000000      -0.671360436507142     
  0.350000000000000      -0.910891971250680     
  0.400000000000000       -1.18470036537552     
  0.450000000000000       -1.49122690616053     
  0.500000000000000       -1.82848861518837     
  0.550000000000000       -2.19403705971308     
  0.600000000000000       -2.58492289499381     
  0.650000000000000       -2.99766734932989     
  0.700000000000000       -3.42824192113191     
  0.750000000000000       -3.87205758722967     
  0.800000000000000       -4.32396481930327     
  0.850000000000000       -4.77826566647139     
  0.900000000000000       -5.22873908257136     
  0.950000000000000       -5.66868055284050     
   1.00000000000000       -6.09095690350085     
   1.05000000000000       -6.48807695693250     
   1.10000000000000       -6.85227842350937     
   1.15000000000000       -7.17563109883667     
   1.20000000000000       -7.45015606360641     
   1.25000000000000       -7.66796016577156     
   1.30000000000000       -7.82138460625409     
   1.35000000000000       -7.90316595694325     
   1.40000000000000       -7.90660742236612     
   1.45000000000000       -7.82575762529111     
   1.50000000000000       -7.65559366491121     
   1.55000000000000       -7.39220467939121     
   1.60000000000000       -7.03297165950999     
   1.65000000000000       -6.57673882548500     
   1.70000000000000       -6.02397151460950     
   1.75000000000000       -5.37689525355677     
   1.80000000000000       -4.63961052675331     
   1.85000000000000       -3.81817772123681     
   1.90000000000000       -2.92066684779015     
   1.95000000000000       -1.95716692471652     
   2.00000000000000      -0.939750378305113     
   2.05000000000000       0.117611527084712     
   2.10000000000000        1.19918536095898     
   2.15000000000000        2.28766638053409     
   2.20000000000000        3.36442440495708     
   2.25000000000000        4.40980413100440     
   2.30000000000000        5.40347773944169     
   2.35000000000000        6.32484594411547     
   2.40000000000000        7.15348185101994     
   2.45000000000000        7.86961016744298     
   2.50000000000000        8.45461248470314     
   2.55000000000000        8.89154761142550     
   2.60000000000000        9.16567432267830     
   2.65000000000000        9.26496248238096     
   2.70000000000000        9.18057736290103     
   2.75000000000000        8.90732119703515     
   2.80000000000000        8.44401562102469     
   2.85000000000000        7.79380876450963     
   2.90000000000000        6.96439136718394     
   2.95000000000000        5.96810749327777     
   3.00000000000000        4.82194719976540     
   3.05000000000000        3.54741090038336     
   3.10000000000000        2.17023814261972     
   3.15000000000000       0.719997043575962     
   3.20000000000000      -0.770465346495937     
   3.25000000000000       -2.26570705173457     
   3.30000000000000       -3.72850011573829     
   3.35000000000000       -5.12075015214069     
   3.40000000000000       -6.40450725958444     
   3.45000000000000       -7.54304431438355     
   3.50000000000000       -8.50197426020298     
   3.55000000000000       -9.25037416833750     
   3.60000000000000       -9.76188074291386     
   3.65000000000000       -10.0157197849233     
   3.70000000000000       -9.99763108547325     
   3.75000000000000       -9.70065044697802     
   3.80000000000000       -9.12571215406878     
   3.85000000000000       -8.28203831585070     
   3.90000000000000       -7.18728611092937     
   3.95000000000000       -5.86743006356448     
   4.00000000000000       -4.35636397913642     
   4.05000000000000       -2.69521592055146     
   4.10000000000000      -0.931379398776176     
   4.15000000000000       0.882725499810020     
   4.20000000000000        2.69113635950565     
   4.25000000000000        4.43604237340044     
   4.30000000000000        6.05964171035548     
   4.35000000000000        7.50610633818821     
   4.40000000000000        8.72358996626468     
   4.45000000000000        9.66620821670539     
   4.50000000000000        10.2959158248531     
   4.55000000000000        10.5842039901966     
   4.60000000000000        10.5135422582916     
   4.65000000000000        10.0784937265809     
   4.70000000000000        9.28644003161692     
   4.75000000000000        8.15786345978261     
   4.80000000000000        6.72614745236662     
   4.85000000000000        5.03687342246474     
   4.90000000000000        3.14661068832796     
   4.95000000000000        1.12121683356832     
   5.00000000000000      -0.966312823424498     
