 VARIABLES = "t", "u"
 ZONE DATAPACKING=POINT, I=         101
  0.000000000000000E+000   5.00000000000000     
  5.000000000000000E-002   4.99953129394119     
  0.100000000000000        4.99718820297671     
  0.150000000000000        4.99109871386404     
  0.200000000000000        4.97939748487993     
  0.250000000000000        4.96023285211945     
  0.300000000000000        4.93177660266428     
  0.350000000000000        4.89223646520139     
  0.400000000000000        4.83987123960922     
  0.450000000000000        4.77300845109674     
  0.500000000000000        4.69006437204453     
  0.550000000000000        4.58956620626392     
  0.600000000000000        4.47017617663538     
  0.650000000000000        4.33071719887307     
  0.700000000000000        4.17019976255145     
  0.750000000000000        3.98784957679963     
  0.800000000000000        3.78313547371414     
  0.850000000000000        3.55579699927254     
  0.900000000000000        3.30587106126930     
  0.950000000000000        3.03371694865190     
   1.00000000000000        2.74003898888487     
   1.05000000000000        2.42590607201546     
   1.10000000000000        2.09276724444167     
   1.15000000000000        1.74246256450057     
   1.20000000000000        1.37722841836708     
   1.25000000000000       0.999696520725777     
   1.30000000000000       0.612885872388301     
   1.35000000000000       0.220187018312378     
   1.40000000000000      -0.174661954227849     
   1.45000000000000      -0.567608115334917     
   1.50000000000000      -0.954325379555005     
   1.55000000000000       -1.33026529543667     
   1.60000000000000       -1.69071685359781     
   1.65000000000000       -2.03087500756784     
   1.70000000000000       -2.34591736028185     
   1.75000000000000       -2.63108821207354     
   1.80000000000000       -2.88178889835565     
   1.85000000000000       -3.09367307290634     
   1.90000000000000       -3.26274532276943     
   1.95000000000000       -3.38546124107347     
   2.00000000000000       -3.45882684317788     
   2.05000000000000       -3.48049499864474     
   2.10000000000000       -3.44885637616644     
   2.15000000000000       -3.36312227042215     
   2.20000000000000       -3.22339660838186     
   2.25000000000000       -3.03073442680668     
   2.30000000000000       -2.78718418071641     
   2.35000000000000       -2.49581139126162     
   2.40000000000000       -2.16070137595022     
   2.45000000000000       -1.78693912769468     
   2.50000000000000       -1.38056482240663     
   2.55000000000000      -0.948503935847408     
   2.60000000000000      -0.498471534068026     
   2.65000000000000      -3.885095968229392E-002
   2.70000000000000       0.421452143368066     
   2.75000000000000       0.873178756211029     
   2.80000000000000        1.30690585591123     
   2.85000000000000        1.71325292086677     
   2.90000000000000        2.08310147521553     
   2.95000000000000        2.40782283566566     
   3.00000000000000        2.67950855609671     
   3.05000000000000        2.89119749951157     
   3.10000000000000        3.03709303264547     
   3.15000000000000        3.11276356377598     
   3.20000000000000        3.11531955472876     
   3.25000000000000        3.04356025591675     
   3.30000000000000        2.89808375591765     
   3.35000000000000        2.68135451607547     
   3.40000000000000        2.39772338033571     
   3.45000000000000        2.05339610737300     
   3.50000000000000        1.65634775358859     
   3.55000000000000        1.21618171989571     
   3.60000000000000       0.743933930890278     
   3.65000000000000       0.251824401000428     
   3.70000000000000      -0.247039691551491     
   3.75000000000000      -0.739003413873676     
   3.80000000000000       -1.21023811624984     
   3.85000000000000       -1.64714051214362     
   3.90000000000000       -2.03674566762056     
   3.95000000000000       -2.36714148054623     
   4.00000000000000       -2.62787127304895     
   4.05000000000000       -2.81031055905780     
   4.10000000000000       -2.90800393862492     
   4.15000000000000       -2.91694845664953     
   4.20000000000000       -2.83581067497393     
   4.25000000000000       -2.66606615531403     
   4.30000000000000       -2.41205202776454     
   4.35000000000000       -2.08092579557206     
   4.40000000000000       -1.68252644866397     
   4.45000000000000       -1.22913725039977     
   4.50000000000000      -0.735153126562679     
   4.55000000000000      -0.216659305085309     
   4.60000000000000       0.309068405294784     
   4.65000000000000       0.824127697021652     
   4.70000000000000        1.31060087680915     
   4.75000000000000        1.75119279198090     
   4.80000000000000        2.12987305779842     
   4.85000000000000        2.43249851440660     
   4.90000000000000        2.64739114065903     
   4.95000000000000        2.76584690475174     
   5.00000000000000        2.78255230174136     
