 VARIABLES = "X", "Y", "U0", "U1", "U2", "U3" 
 ZONE I=          11 , J=          11 ,DATAPACKING=POINT
  -1.00000000000000       -1.00000000000000       0.000000000000000E+000
  0.000000000000000E+000  0.000000000000000E+000  0.000000000000000E+000
  -1.00000000000000      -0.943011437110311       0.000000000000000E+000
  0.000000000000000E+000  0.000000000000000E+000  0.000000000000000E+000
  -1.00000000000000      -0.781015431181261       0.000000000000000E+000
  0.000000000000000E+000  0.000000000000000E+000  0.000000000000000E+000
  -1.00000000000000      -0.539825600198700       0.000000000000000E+000
  0.000000000000000E+000  0.000000000000000E+000  0.000000000000000E+000
  -1.00000000000000      -0.259779651534497       0.000000000000000E+000
  0.000000000000000E+000  0.000000000000000E+000  0.000000000000000E+000
  -1.00000000000000       8.657956016909346E-018  0.000000000000000E+000
  0.000000000000000E+000  0.000000000000000E+000  0.000000000000000E+000
  -1.00000000000000       0.259779651534497       0.000000000000000E+000
  0.000000000000000E+000  0.000000000000000E+000  0.000000000000000E+000
  -1.00000000000000       0.539825600198700       0.000000000000000E+000
  0.000000000000000E+000  0.000000000000000E+000  0.000000000000000E+000
  -1.00000000000000       0.781015431181261       0.000000000000000E+000
  0.000000000000000E+000  0.000000000000000E+000  0.000000000000000E+000
  -1.00000000000000       0.943011437110311       0.000000000000000E+000
  0.000000000000000E+000  0.000000000000000E+000  0.000000000000000E+000
  -1.00000000000000        1.00000000000000       0.000000000000000E+000
  0.000000000000000E+000  0.000000000000000E+000  0.000000000000000E+000
 -0.943011437110311       -1.00000000000000       0.000000000000000E+000
  0.000000000000000E+000  0.000000000000000E+000  0.000000000000000E+000
 -0.943011437110311      -0.943011437110311       1.266416554909417E-014
  1.325141508531245E-006  5.453804143720234E-005  3.599027892641720E-004
 -0.943011437110311      -0.781015431181261       1.388794386496402E-011
  1.407269008262931E-005  2.802289199882032E-004  1.484831416199524E-003
 -0.943011437110311      -0.539825600198700       2.061153622438558E-009
  1.135602040051863E-004  1.133267860741627E-003  3.725467441997437E-003
 -0.943011437110311      -0.259779651534497       4.139937718785167E-008
  4.860827868081719E-004  2.987100730363319E-003  6.677990286543358E-003
 -0.943011437110311       8.657956016909346E-018  1.125351747192591E-007
  7.910196797503089E-004  4.055564640488570E-003  7.954884985128354E-003
 -0.943011437110311       0.259779651534497       4.139937718785167E-008
  4.860827868081720E-004  2.987100730363320E-003  6.677990286543361E-003
 -0.943011437110311       0.539825600198700       2.061153622438558E-009
  1.135602040051863E-004  1.133267860741628E-003  3.725467441997438E-003
 -0.943011437110311       0.781015431181261       1.388794386496397E-011
  1.407269008262925E-005  2.802289199882036E-004  1.484831416199527E-003
 -0.943011437110311       0.943011437110311       1.266416554909417E-014
  1.325141508531256E-006  5.453804143720256E-005  3.599027892641737E-004
 -0.943011437110311        1.00000000000000       0.000000000000000E+000
  0.000000000000000E+000  0.000000000000000E+000  0.000000000000000E+000
 -0.781015431181261       -1.00000000000000       0.000000000000000E+000
  0.000000000000000E+000  0.000000000000000E+000  0.000000000000000E+000
 -0.781015431181261      -0.943011437110311       1.388794386496402E-011
  1.407269008262928E-005  2.802289199882033E-004  1.484831416199524E-003
 -0.781015431181261      -0.781015431181261       1.522997974471263E-008
  1.494487377870745E-004  1.439880231916159E-003  6.125888434824892E-003
 -0.781015431181261      -0.539825600198700       2.260329406981054E-006
  1.205983340881280E-003  5.822989261981711E-003  1.536995895013537E-002
 -0.781015431181261      -0.259779651534497       4.539992976248485E-005
  5.162088252856935E-003  1.534840620860276E-002  2.755102229914360E-002
 -0.781015431181261       8.657956016909346E-018  1.234098040866796E-004
  8.400449075495395E-003  2.083841795612084E-002  3.281903749629762E-002
 -0.781015431181261       0.259779651534497       4.539992976248485E-005
  5.162088252856938E-003  1.534840620860277E-002  2.755102229914361E-002
 -0.781015431181261       0.539825600198700       2.260329406981058E-006
  1.205983340881281E-003  5.822989261981712E-003  1.536995895013538E-002
 -0.781015431181261       0.781015431181261       1.522997974471257E-008
  1.494487377870745E-004  1.439880231916160E-003  6.125888434824903E-003
 -0.781015431181261       0.943011437110311       1.388794386496402E-011
  1.407269008262940E-005  2.802289199882045E-004  1.484831416199530E-003
 -0.781015431181261        1.00000000000000       0.000000000000000E+000
  0.000000000000000E+000  0.000000000000000E+000  0.000000000000000E+000
 -0.539825600198700       -1.00000000000000       0.000000000000000E+000
  0.000000000000000E+000  0.000000000000000E+000  0.000000000000000E+000
 -0.539825600198700      -0.943011437110311       2.061153622438558E-009
  1.135602040051863E-004  1.133267860741627E-003  3.725467441997436E-003
 -0.539825600198700      -0.781015431181261       2.260329406981054E-006
  1.205983340881280E-003  5.822989261981710E-003  1.536995895013537E-002
 -0.539825600198700      -0.539825600198700       3.354626279025118E-004
  9.731737979828254E-003  2.354862793024717E-002  3.856349011301785E-002
 -0.539825600198700      -0.259779651534497       6.737946999085466E-003
  4.165570824831545E-002  6.207016525685934E-002  6.912598657534454E-002
 -0.539825600198700       8.657956016909346E-018  1.831563888873418E-002
  6.778780870577497E-002  8.427220568537767E-002  8.234352689012368E-002
 -0.539825600198700       0.259779651534497       6.737946999085466E-003
  4.165570824831547E-002  6.207016525685935E-002  6.912598657534456E-002
 -0.539825600198700       0.539825600198700       3.354626279025124E-004
  9.731737979828257E-003  2.354862793024718E-002  3.856349011301787E-002
 -0.539825600198700       0.781015431181261       2.260329406981046E-006
  1.205983340881279E-003  5.822989261981716E-003  1.536995895013540E-002
 -0.539825600198700       0.943011437110311       2.061153622438558E-009
  1.135602040051872E-004  1.133267860741632E-003  3.725467441997451E-003
 -0.539825600198700        1.00000000000000       0.000000000000000E+000
  0.000000000000000E+000  0.000000000000000E+000  0.000000000000000E+000
 -0.259779651534497       -1.00000000000000       0.000000000000000E+000
  0.000000000000000E+000  0.000000000000000E+000  0.000000000000000E+000
 -0.259779651534497      -0.943011437110311       4.139937718785167E-008
  4.860827868081718E-004  2.987100730363319E-003  6.677990286543358E-003
 -0.259779651534497      -0.781015431181261       4.539992976248485E-005
  5.162088252856935E-003  1.534840620860276E-002  2.755102229914360E-002
 -0.259779651534497      -0.539825600198700       6.737946999085466E-003
  4.165570824831545E-002  6.207016525685933E-002  6.912598657534454E-002
 -0.259779651534497      -0.259779651534497       0.135335283236613     
  0.178302992796817       0.163606364872350       0.123909998990978     
 -0.259779651534497       8.657956016909346E-018  0.367879441171443     
  0.290158772738896       0.222127155515916       0.147602758973749     
 -0.259779651534497       0.259779651534497       0.135335283236613     
  0.178302992796817       0.163606364872350       0.123909998990978     
 -0.259779651534497       0.539825600198700       6.737946999085478E-003
  4.165570824831546E-002  6.207016525685936E-002  6.912598657534458E-002
 -0.259779651534497       0.781015431181261       4.539992976248469E-005
  5.162088252856932E-003  1.534840620860278E-002  2.755102229914365E-002
 -0.259779651534497       0.943011437110311       4.139937718785167E-008
  4.860827868081751E-004  2.987100730363331E-003  6.677990286543385E-003
 -0.259779651534497        1.00000000000000       0.000000000000000E+000
  0.000000000000000E+000  0.000000000000000E+000  0.000000000000000E+000
  8.657956016909346E-018  -1.00000000000000       0.000000000000000E+000
  0.000000000000000E+000  0.000000000000000E+000  0.000000000000000E+000
  8.657956016909346E-018 -0.943011437110311       1.125351747192591E-007
  7.910196797503089E-004  4.055564640488570E-003  7.954884985128354E-003
  8.657956016909346E-018 -0.781015431181261       1.234098040866796E-004
  8.400449075495395E-003  2.083841795612084E-002  3.281903749629761E-002
  8.657956016909346E-018 -0.539825600198700       1.831563888873418E-002
  6.778780870577497E-002  8.427220568537767E-002  8.234352689012368E-002
  8.657956016909346E-018 -0.259779651534497       0.367879441171443     
  0.290158772738896       0.222127155515916       0.147602758973749     
  8.657956016909346E-018  8.657956016909346E-018   1.00000000000000     
  0.472185647290365       0.301580402014297       0.175825798044710     
  8.657956016909346E-018  0.259779651534497       0.367879441171443     
  0.290158772738896       0.222127155515916       0.147602758973749     
  8.657956016909346E-018  0.539825600198700       1.831563888873421E-002
  6.778780870577500E-002  8.427220568537772E-002  8.234352689012374E-002
  8.657956016909346E-018  0.781015431181261       1.234098040866791E-004
  8.400449075495394E-003  2.083841795612086E-002  3.281903749629769E-002
  8.657956016909346E-018  0.943011437110311       1.125351747192591E-007
  7.910196797503140E-004  4.055564640488588E-003  7.954884985128387E-003
  8.657956016909346E-018   1.00000000000000       0.000000000000000E+000
  0.000000000000000E+000  0.000000000000000E+000  0.000000000000000E+000
  0.259779651534497       -1.00000000000000       0.000000000000000E+000
  0.000000000000000E+000  0.000000000000000E+000  0.000000000000000E+000
  0.259779651534497      -0.943011437110311       4.139937718785167E-008
  4.860827868081720E-004  2.987100730363320E-003  6.677990286543359E-003
  0.259779651534497      -0.781015431181261       4.539992976248485E-005
  5.162088252856938E-003  1.534840620860277E-002  2.755102229914361E-002
  0.259779651534497      -0.539825600198700       6.737946999085466E-003
  4.165570824831547E-002  6.207016525685935E-002  6.912598657534456E-002
  0.259779651534497      -0.259779651534497       0.135335283236613     
  0.178302992796817       0.163606364872350       0.123909998990978     
  0.259779651534497       8.657956016909346E-018  0.367879441171443     
  0.290158772738896       0.222127155515916       0.147602758973749     
  0.259779651534497       0.259779651534497       0.135335283236613     
  0.178302992796817       0.163606364872351       0.123909998990978     
  0.259779651534497       0.539825600198700       6.737946999085478E-003
  4.165570824831549E-002  6.207016525685938E-002  6.912598657534461E-002
  0.259779651534497       0.781015431181261       4.539992976248469E-005
  5.162088252856936E-003  1.534840620860279E-002  2.755102229914367E-002
  0.259779651534497       0.943011437110311       4.139937718785167E-008
  4.860827868081752E-004  2.987100730363334E-003  6.677990286543389E-003
  0.259779651534497        1.00000000000000       0.000000000000000E+000
  0.000000000000000E+000  0.000000000000000E+000  0.000000000000000E+000
  0.539825600198700       -1.00000000000000       0.000000000000000E+000
  0.000000000000000E+000  0.000000000000000E+000  0.000000000000000E+000
  0.539825600198700      -0.943011437110311       2.061153622438558E-009
  1.135602040051863E-004  1.133267860741628E-003  3.725467441997438E-003
  0.539825600198700      -0.781015431181261       2.260329406981058E-006
  1.205983340881281E-003  5.822989261981712E-003  1.536995895013538E-002
  0.539825600198700      -0.539825600198700       3.354626279025124E-004
  9.731737979828257E-003  2.354862793024718E-002  3.856349011301787E-002
  0.539825600198700      -0.259779651534497       6.737946999085478E-003
  4.165570824831546E-002  6.207016525685936E-002  6.912598657534458E-002
  0.539825600198700       8.657956016909346E-018  1.831563888873421E-002
  6.778780870577500E-002  8.427220568537770E-002  8.234352689012374E-002
  0.539825600198700       0.259779651534497       6.737946999085478E-003
  4.165570824831549E-002  6.207016525685938E-002  6.912598657534461E-002
  0.539825600198700       0.539825600198700       3.354626279025130E-004
  9.731737979828266E-003  2.354862793024719E-002  3.856349011301790E-002
  0.539825600198700       0.781015431181261       2.260329406981050E-006
  1.205983340881281E-003  5.822989261981720E-003  1.536995895013541E-002
  0.539825600198700       0.943011437110311       2.061153622438558E-009
  1.135602040051873E-004  1.133267860741633E-003  3.725467441997454E-003
  0.539825600198700        1.00000000000000       0.000000000000000E+000
  0.000000000000000E+000  0.000000000000000E+000  0.000000000000000E+000
  0.781015431181261       -1.00000000000000       0.000000000000000E+000
  0.000000000000000E+000  0.000000000000000E+000  0.000000000000000E+000
  0.781015431181261      -0.943011437110311       1.388794386496397E-011
  1.407269008262924E-005  2.802289199882036E-004  1.484831416199527E-003
  0.781015431181261      -0.781015431181261       1.522997974471257E-008
  1.494487377870745E-004  1.439880231916160E-003  6.125888434824903E-003
  0.781015431181261      -0.539825600198700       2.260329406981046E-006
  1.205983340881279E-003  5.822989261981717E-003  1.536995895013540E-002
  0.781015431181261      -0.259779651534497       4.539992976248469E-005
  5.162088252856932E-003  1.534840620860278E-002  2.755102229914365E-002
  0.781015431181261       8.657956016909346E-018  1.234098040866791E-004
  8.400449075495395E-003  2.083841795612086E-002  3.281903749629768E-002
  0.781015431181261       0.259779651534497       4.539992976248469E-005
  5.162088252856937E-003  1.534840620860279E-002  2.755102229914367E-002
  0.781015431181261       0.539825600198700       2.260329406981050E-006
  1.205983340881281E-003  5.822989261981720E-003  1.536995895013541E-002
  0.781015431181261       0.781015431181261       1.522997974471252E-008
  1.494487377870745E-004  1.439880231916162E-003  6.125888434824916E-003
  0.781015431181261       0.943011437110311       1.388794386496397E-011
  1.407269008262937E-005  2.802289199882050E-004  1.484831416199533E-003
  0.781015431181261        1.00000000000000       0.000000000000000E+000
  0.000000000000000E+000  0.000000000000000E+000  0.000000000000000E+000
  0.943011437110311       -1.00000000000000       0.000000000000000E+000
  0.000000000000000E+000  0.000000000000000E+000  0.000000000000000E+000
  0.943011437110311      -0.943011437110311       1.266416554909417E-014
  1.325141508531253E-006  5.453804143720257E-005  3.599027892641737E-004
  0.943011437110311      -0.781015431181261       1.388794386496402E-011
  1.407269008262942E-005  2.802289199882045E-004  1.484831416199530E-003
  0.943011437110311      -0.539825600198700       2.061153622438558E-009
  1.135602040051872E-004  1.133267860741632E-003  3.725467441997450E-003
  0.943011437110311      -0.259779651534497       4.139937718785167E-008
  4.860827868081751E-004  2.987100730363332E-003  6.677990286543385E-003
  0.943011437110311       8.657956016909346E-018  1.125351747192591E-007
  7.910196797503147E-004  4.055564640488588E-003  7.954884985128387E-003
  0.943011437110311       0.259779651534497       4.139937718785167E-008
  4.860827868081756E-004  2.987100730363334E-003  6.677990286543389E-003
  0.943011437110311       0.539825600198700       2.061153622438558E-009
  1.135602040051873E-004  1.133267860741633E-003  3.725467441997454E-003
  0.943011437110311       0.781015431181261       1.388794386496397E-011
  1.407269008262939E-005  2.802289199882049E-004  1.484831416199533E-003
  0.943011437110311       0.943011437110311       1.266416554909417E-014
  1.325141508531260E-006  5.453804143720281E-005  3.599027892641753E-004
  0.943011437110311        1.00000000000000       0.000000000000000E+000
  0.000000000000000E+000  0.000000000000000E+000  0.000000000000000E+000
   1.00000000000000       -1.00000000000000       0.000000000000000E+000
  0.000000000000000E+000  0.000000000000000E+000  0.000000000000000E+000
   1.00000000000000      -0.943011437110311       0.000000000000000E+000
  0.000000000000000E+000  0.000000000000000E+000  0.000000000000000E+000
   1.00000000000000      -0.781015431181261       0.000000000000000E+000
  0.000000000000000E+000  0.000000000000000E+000  0.000000000000000E+000
   1.00000000000000      -0.539825600198700       0.000000000000000E+000
  0.000000000000000E+000  0.000000000000000E+000  0.000000000000000E+000
   1.00000000000000      -0.259779651534497       0.000000000000000E+000
  0.000000000000000E+000  0.000000000000000E+000  0.000000000000000E+000
   1.00000000000000       8.657956016909346E-018  0.000000000000000E+000
  0.000000000000000E+000  0.000000000000000E+000  0.000000000000000E+000
   1.00000000000000       0.259779651534497       0.000000000000000E+000
  0.000000000000000E+000  0.000000000000000E+000  0.000000000000000E+000
   1.00000000000000       0.539825600198700       0.000000000000000E+000
  0.000000000000000E+000  0.000000000000000E+000  0.000000000000000E+000
   1.00000000000000       0.781015431181261       0.000000000000000E+000
  0.000000000000000E+000  0.000000000000000E+000  0.000000000000000E+000
   1.00000000000000       0.943011437110311       0.000000000000000E+000
  0.000000000000000E+000  0.000000000000000E+000  0.000000000000000E+000
   1.00000000000000        1.00000000000000       0.000000000000000E+000
  0.000000000000000E+000  0.000000000000000E+000  0.000000000000000E+000
