 VARIABLES =  $x$  (b)
 ZONE I=         441 ,DATAPACKING=POINT
  0.000000000000000E+00  0.000000000000000E+00  0.000000000000000E+00
  0.000000000000000E+00  0.750000000000000E-01  0.000000000000000E+00
  0.000000000000000E+00  0.125000000000000E+00  0.000000000000000E+00
  0.000000000000000E+00  0.175000000000000E+00  0.000000000000000E+00
  0.000000000000000E+00  0.225000000000000E+00  0.000000000000000E+00
  0.000000000000000E+00  0.275000000000000E+00  0.000000000000000E+00
  0.000000000000000E+00  0.325000000000000E+00  0.000000000000000E+00
  0.000000000000000E+00  0.375000000000000E+00  0.000000000000000E+00
  0.000000000000000E+00  0.425000000000000E+00  0.000000000000000E+00
  0.000000000000000E+00  0.475000000000000E+00  0.000000000000000E+00
  0.000000000000000E+00  0.525000000000000E+00  0.000000000000000E+00
  0.000000000000000E+00  0.575000000000000E+00  0.000000000000000E+00
  0.000000000000000E+00  0.625000000000000E+00  0.000000000000000E+00
  0.000000000000000E+00  0.675000000000000E+00  0.000000000000000E+00
  0.000000000000000E+00  0.725000000000000E+00  0.000000000000000E+00
  0.000000000000000E+00  0.775000000000000E+00  0.000000000000000E+00
  0.000000000000000E+00  0.825000000000000E+00  0.000000000000000E+00
  0.000000000000000E+00  0.875000000000000E+00  0.000000000000000E+00
  0.000000000000000E+00  0.925000000000000E+00  0.000000000000000E+00
  0.000000000000000E+00  0.975000000000000E+00  0.000000000000000E+00
  0.000000000000000E+00  0.100000000000000E+01  0.000000000000000E+00
  0.750000000000000E-01  0.000000000000000E+00  0.000000000000000E+00
  0.750000000000000E-01  0.750000000000000E-01  0.000000000000000E+00
  0.750000000000000E-01  0.125000000000000E+00  0.000000000000000E+00
  0.750000000000000E-01  0.175000000000000E+00  0.000000000000000E+00
  0.750000000000000E-01  0.225000000000000E+00  0.000000000000000E+00
  0.750000000000000E-01  0.275000000000000E+00  0.000000000000000E+00
  0.750000000000000E-01  0.325000000000000E+00  0.000000000000000E+00
  0.750000000000000E-01  0.375000000000000E+00  0.000000000000000E+00
  0.750000000000000E-01  0.425000000000000E+00  0.000000000000000E+00
  0.750000000000000E-01  0.475000000000000E+00  0.000000000000000E+00
  0.750000000000000E-01  0.525000000000000E+00  0.000000000000000E+00
  0.750000000000000E-01  0.575000000000000E+00  0.000000000000000E+00
  0.750000000000000E-01  0.625000000000000E+00  0.000000000000000E+00
  0.750000000000000E-01  0.675000000000000E+00  0.000000000000000E+00
  0.750000000000000E-01  0.725000000000000E+00  0.000000000000000E+00
  0.750000000000000E-01  0.775000000000000E+00  0.000000000000000E+00
  0.750000000000000E-01  0.825000000000000E+00  0.000000000000000E+00
  0.750000000000000E-01  0.875000000000000E+00  0.000000000000000E+00
  0.750000000000000E-01  0.925000000000000E+00  0.000000000000000E+00
  0.750000000000000E-01  0.975000000000000E+00  0.000000000000000E+00
  0.750000000000000E-01  0.100000000000000E+01  0.000000000000000E+00
  0.125000000000000E+00  0.000000000000000E+00  0.000000000000000E+00
  0.125000000000000E+00  0.750000000000000E-01  0.000000000000000E+00
  0.125000000000000E+00  0.125000000000000E+00  0.000000000000000E+00
  0.125000000000000E+00  0.175000000000000E+00  0.000000000000000E+00
  0.125000000000000E+00  0.225000000000000E+00  0.000000000000000E+00
  0.125000000000000E+00  0.275000000000000E+00  0.000000000000000E+00
  0.125000000000000E+00  0.325000000000000E+00  0.000000000000000E+00
  0.125000000000000E+00  0.375000000000000E+00  0.000000000000000E+00
  0.125000000000000E+00  0.425000000000000E+00  0.000000000000000E+00
  0.125000000000000E+00  0.475000000000000E+00  0.000000000000000E+00
  0.125000000000000E+00  0.525000000000000E+00  0.000000000000000E+00
  0.125000000000000E+00  0.575000000000000E+00  0.000000000000000E+00
  0.125000000000000E+00  0.625000000000000E+00  0.000000000000000E+00
  0.125000000000000E+00  0.675000000000000E+00  0.000000000000000E+00
  0.125000000000000E+00  0.725000000000000E+00  0.000000000000000E+00
  0.125000000000000E+00  0.775000000000000E+00  0.000000000000000E+00
  0.125000000000000E+00  0.825000000000000E+00  0.000000000000000E+00
  0.125000000000000E+00  0.875000000000000E+00  0.000000000000000E+00
  0.125000000000000E+00  0.925000000000000E+00  0.000000000000000E+00
  0.125000000000000E+00  0.975000000000000E+00  0.000000000000000E+00
  0.125000000000000E+00  0.100000000000000E+01  0.000000000000000E+00
  0.175000000000000E+00  0.000000000000000E+00  0.000000000000000E+00
  0.175000000000000E+00  0.750000000000000E-01  0.000000000000000E+00
  0.175000000000000E+00  0.125000000000000E+00  0.000000000000000E+00
  0.175000000000000E+00  0.175000000000000E+00  0.000000000000000E+00
  0.175000000000000E+00  0.225000000000000E+00  0.000000000000000E+00
  0.175000000000000E+00  0.275000000000000E+00  0.000000000000000E+00
  0.175000000000000E+00  0.325000000000000E+00  0.000000000000000E+00
  0.175000000000000E+00  0.375000000000000E+00  0.000000000000000E+00
  0.175000000000000E+00  0.425000000000000E+00  0.000000000000000E+00
  0.175000000000000E+00  0.475000000000000E+00  0.000000000000000E+00
  0.175000000000000E+00  0.525000000000000E+00  0.000000000000000E+00
  0.175000000000000E+00  0.575000000000000E+00  0.000000000000000E+00
  0.175000000000000E+00  0.625000000000000E+00  0.000000000000000E+00
  0.175000000000000E+00  0.675000000000000E+00  0.000000000000000E+00
  0.175000000000000E+00  0.725000000000000E+00  0.000000000000000E+00
  0.175000000000000E+00  0.775000000000000E+00  0.000000000000000E+00
  0.175000000000000E+00  0.825000000000000E+00  0.000000000000000E+00
  0.175000000000000E+00  0.875000000000000E+00  0.000000000000000E+00
  0.175000000000000E+00  0.925000000000000E+00  0.000000000000000E+00
  0.175000000000000E+00  0.975000000000000E+00  0.000000000000000E+00
  0.175000000000000E+00  0.100000000000000E+01  0.000000000000000E+00
  0.225000000000000E+00  0.000000000000000E+00  0.000000000000000E+00
  0.225000000000000E+00  0.750000000000000E-01  0.000000000000000E+00
  0.225000000000000E+00  0.125000000000000E+00  0.000000000000000E+00
  0.225000000000000E+00  0.175000000000000E+00  0.000000000000000E+00
  0.225000000000000E+00  0.225000000000000E+00  0.000000000000000E+00
  0.225000000000000E+00  0.275000000000000E+00  0.000000000000000E+00
  0.225000000000000E+00  0.325000000000000E+00  0.000000000000000E+00
  0.225000000000000E+00  0.375000000000000E+00  0.000000000000000E+00
  0.225000000000000E+00  0.425000000000000E+00  0.000000000000000E+00
  0.225000000000000E+00  0.475000000000000E+00  0.000000000000000E+00
  0.225000000000000E+00  0.525000000000000E+00  0.000000000000000E+00
  0.225000000000000E+00  0.575000000000000E+00  0.000000000000000E+00
  0.225000000000000E+00  0.625000000000000E+00  0.000000000000000E+00
  0.225000000000000E+00  0.675000000000000E+00  0.000000000000000E+00
  0.225000000000000E+00  0.725000000000000E+00  0.000000000000000E+00
  0.225000000000000E+00  0.775000000000000E+00  0.000000000000000E+00
  0.225000000000000E+00  0.825000000000000E+00  0.000000000000000E+00
  0.225000000000000E+00  0.875000000000000E+00  0.000000000000000E+00
  0.225000000000000E+00  0.925000000000000E+00  0.000000000000000E+00
  0.225000000000000E+00  0.975000000000000E+00  0.000000000000000E+00
  0.225000000000000E+00  0.100000000000000E+01  0.000000000000000E+00
  0.275000000000000E+00  0.000000000000000E+00  0.000000000000000E+00
  0.275000000000000E+00  0.750000000000000E-01  0.000000000000000E+00
  0.275000000000000E+00  0.125000000000000E+00  0.000000000000000E+00
  0.275000000000000E+00  0.175000000000000E+00  0.000000000000000E+00
  0.275000000000000E+00  0.225000000000000E+00  0.000000000000000E+00
  0.275000000000000E+00  0.275000000000000E+00  0.000000000000000E+00
  0.275000000000000E+00  0.325000000000000E+00  0.000000000000000E+00
  0.275000000000000E+00  0.375000000000000E+00  0.000000000000000E+00
  0.275000000000000E+00  0.425000000000000E+00  0.000000000000000E+00
  0.275000000000000E+00  0.475000000000000E+00  0.000000000000000E+00
  0.275000000000000E+00  0.525000000000000E+00  0.000000000000000E+00
  0.275000000000000E+00  0.575000000000000E+00  0.000000000000000E+00
  0.275000000000000E+00  0.625000000000000E+00  0.000000000000000E+00
  0.275000000000000E+00  0.675000000000000E+00  0.000000000000000E+00
  0.275000000000000E+00  0.725000000000000E+00  0.000000000000000E+00
  0.275000000000000E+00  0.775000000000000E+00  0.000000000000000E+00
  0.275000000000000E+00  0.825000000000000E+00  0.000000000000000E+00
  0.275000000000000E+00  0.875000000000000E+00  0.000000000000000E+00
  0.275000000000000E+00  0.925000000000000E+00  0.000000000000000E+00
  0.275000000000000E+00  0.975000000000000E+00  0.000000000000000E+00
  0.275000000000000E+00  0.100000000000000E+01  0.000000000000000E+00
  0.325000000000000E+00  0.000000000000000E+00  0.000000000000000E+00
  0.325000000000000E+00  0.750000000000000E-01  0.000000000000000E+00
  0.325000000000000E+00  0.125000000000000E+00  0.000000000000000E+00
  0.325000000000000E+00  0.175000000000000E+00  0.000000000000000E+00
  0.325000000000000E+00  0.225000000000000E+00  0.000000000000000E+00
  0.325000000000000E+00  0.275000000000000E+00  0.000000000000000E+00
  0.325000000000000E+00  0.325000000000000E+00  0.000000000000000E+00
  0.325000000000000E+00  0.375000000000000E+00  0.000000000000000E+00
  0.325000000000000E+00  0.425000000000000E+00  0.000000000000000E+00
  0.325000000000000E+00  0.475000000000000E+00  0.000000000000000E+00
  0.325000000000000E+00  0.525000000000000E+00  0.000000000000000E+00
  0.325000000000000E+00  0.575000000000000E+00  0.000000000000000E+00
  0.325000000000000E+00  0.625000000000000E+00  0.000000000000000E+00
  0.325000000000000E+00  0.675000000000000E+00  0.000000000000000E+00
  0.325000000000000E+00  0.725000000000000E+00  0.000000000000000E+00
  0.325000000000000E+00  0.775000000000000E+00  0.000000000000000E+00
  0.325000000000000E+00  0.825000000000000E+00  0.000000000000000E+00
  0.325000000000000E+00  0.875000000000000E+00  0.000000000000000E+00
  0.325000000000000E+00  0.925000000000000E+00  0.000000000000000E+00
  0.325000000000000E+00  0.975000000000000E+00  0.000000000000000E+00
  0.325000000000000E+00  0.100000000000000E+01  0.000000000000000E+00
  0.375000000000000E+00  0.000000000000000E+00  0.000000000000000E+00
  0.375000000000000E+00  0.750000000000000E-01  0.000000000000000E+00
  0.375000000000000E+00  0.125000000000000E+00  0.000000000000000E+00
  0.375000000000000E+00  0.175000000000000E+00  0.000000000000000E+00
  0.375000000000000E+00  0.225000000000000E+00  0.000000000000000E+00
  0.375000000000000E+00  0.275000000000000E+00  0.000000000000000E+00
  0.375000000000000E+00  0.325000000000000E+00  0.000000000000000E+00
  0.375000000000000E+00  0.375000000000000E+00  0.000000000000000E+00
  0.375000000000000E+00  0.425000000000000E+00  0.000000000000000E+00
  0.375000000000000E+00  0.475000000000000E+00  0.000000000000000E+00
  0.375000000000000E+00  0.525000000000000E+00  0.000000000000000E+00
  0.375000000000000E+00  0.575000000000000E+00  0.000000000000000E+00
  0.375000000000000E+00  0.625000000000000E+00  0.000000000000000E+00
  0.375000000000000E+00  0.675000000000000E+00  0.000000000000000E+00
  0.375000000000000E+00  0.725000000000000E+00  0.000000000000000E+00
  0.375000000000000E+00  0.775000000000000E+00  0.000000000000000E+00
  0.375000000000000E+00  0.825000000000000E+00  0.000000000000000E+00
  0.375000000000000E+00  0.875000000000000E+00  0.000000000000000E+00
  0.375000000000000E+00  0.925000000000000E+00  0.000000000000000E+00
  0.375000000000000E+00  0.975000000000000E+00  0.000000000000000E+00
  0.375000000000000E+00  0.100000000000000E+01  0.000000000000000E+00
  0.425000000000000E+00  0.000000000000000E+00  0.000000000000000E+00
  0.425000000000000E+00  0.750000000000000E-01  0.000000000000000E+00
  0.425000000000000E+00  0.125000000000000E+00  0.000000000000000E+00
  0.425000000000000E+00  0.175000000000000E+00  0.000000000000000E+00
  0.425000000000000E+00  0.225000000000000E+00  0.000000000000000E+00
  0.425000000000000E+00  0.275000000000000E+00  0.000000000000000E+00
  0.425000000000000E+00  0.325000000000000E+00  0.000000000000000E+00
  0.425000000000000E+00  0.375000000000000E+00  0.000000000000000E+00
  0.425000000000000E+00  0.425000000000000E+00  0.000000000000000E+00
  0.425000000000000E+00  0.475000000000000E+00  0.000000000000000E+00
  0.425000000000000E+00  0.525000000000000E+00  0.000000000000000E+00
  0.425000000000000E+00  0.575000000000000E+00  0.000000000000000E+00
  0.425000000000000E+00  0.625000000000000E+00  0.000000000000000E+00
  0.425000000000000E+00  0.675000000000000E+00  0.000000000000000E+00
  0.425000000000000E+00  0.725000000000000E+00  0.000000000000000E+00
  0.425000000000000E+00  0.775000000000000E+00  0.000000000000000E+00
  0.425000000000000E+00  0.825000000000000E+00  0.000000000000000E+00
  0.425000000000000E+00  0.875000000000000E+00  0.000000000000000E+00
  0.425000000000000E+00  0.925000000000000E+00  0.000000000000000E+00
  0.425000000000000E+00  0.975000000000000E+00  0.000000000000000E+00
  0.425000000000000E+00  0.100000000000000E+01  0.000000000000000E+00
  0.475000000000000E+00  0.000000000000000E+00  0.000000000000000E+00
  0.475000000000000E+00  0.750000000000000E-01  0.000000000000000E+00
  0.475000000000000E+00  0.125000000000000E+00  0.000000000000000E+00
  0.475000000000000E+00  0.175000000000000E+00  0.000000000000000E+00
  0.475000000000000E+00  0.225000000000000E+00  0.000000000000000E+00
  0.475000000000000E+00  0.275000000000000E+00  0.000000000000000E+00
  0.475000000000000E+00  0.325000000000000E+00  0.000000000000000E+00
  0.475000000000000E+00  0.375000000000000E+00  0.000000000000000E+00
  0.475000000000000E+00  0.425000000000000E+00  0.000000000000000E+00
  0.475000000000000E+00  0.475000000000000E+00  0.000000000000000E+00
  0.475000000000000E+00  0.525000000000000E+00  0.000000000000000E+00
  0.475000000000000E+00  0.575000000000000E+00  0.000000000000000E+00
  0.475000000000000E+00  0.625000000000000E+00  0.000000000000000E+00
  0.475000000000000E+00  0.675000000000000E+00  0.000000000000000E+00
  0.475000000000000E+00  0.725000000000000E+00  0.000000000000000E+00
  0.475000000000000E+00  0.775000000000000E+00  0.000000000000000E+00
  0.475000000000000E+00  0.825000000000000E+00  0.000000000000000E+00
  0.475000000000000E+00  0.875000000000000E+00  0.000000000000000E+00
  0.475000000000000E+00  0.925000000000000E+00  0.000000000000000E+00
  0.475000000000000E+00  0.975000000000000E+00  0.000000000000000E+00
  0.475000000000000E+00  0.100000000000000E+01  0.000000000000000E+00
  0.525000000000000E+00  0.000000000000000E+00  0.000000000000000E+00
  0.525000000000000E+00  0.750000000000000E-01  0.000000000000000E+00
  0.525000000000000E+00  0.125000000000000E+00  0.000000000000000E+00
  0.525000000000000E+00  0.175000000000000E+00  0.000000000000000E+00
  0.525000000000000E+00  0.225000000000000E+00  0.000000000000000E+00
  0.525000000000000E+00  0.275000000000000E+00  0.000000000000000E+00
  0.525000000000000E+00  0.325000000000000E+00  0.000000000000000E+00
  0.525000000000000E+00  0.375000000000000E+00  0.000000000000000E+00
  0.525000000000000E+00  0.425000000000000E+00  0.000000000000000E+00
  0.525000000000000E+00  0.475000000000000E+00  0.000000000000000E+00
  0.525000000000000E+00  0.525000000000000E+00  0.000000000000000E+00
  0.525000000000000E+00  0.575000000000000E+00  0.000000000000000E+00
  0.525000000000000E+00  0.625000000000000E+00  0.000000000000000E+00
  0.525000000000000E+00  0.675000000000000E+00  0.000000000000000E+00
  0.525000000000000E+00  0.725000000000000E+00  0.000000000000000E+00
  0.525000000000000E+00  0.775000000000000E+00  0.000000000000000E+00
  0.525000000000000E+00  0.825000000000000E+00  0.000000000000000E+00
  0.525000000000000E+00  0.875000000000000E+00  0.000000000000000E+00
  0.525000000000000E+00  0.925000000000000E+00  0.000000000000000E+00
  0.525000000000000E+00  0.975000000000000E+00  0.000000000000000E+00
  0.525000000000000E+00  0.100000000000000E+01  0.000000000000000E+00
  0.575000000000000E+00  0.000000000000000E+00  0.000000000000000E+00
  0.575000000000000E+00  0.750000000000000E-01  0.000000000000000E+00
  0.575000000000000E+00  0.125000000000000E+00  0.000000000000000E+00
  0.575000000000000E+00  0.175000000000000E+00  0.000000000000000E+00
  0.575000000000000E+00  0.225000000000000E+00  0.000000000000000E+00
  0.575000000000000E+00  0.275000000000000E+00  0.000000000000000E+00
  0.575000000000000E+00  0.325000000000000E+00  0.000000000000000E+00
  0.575000000000000E+00  0.375000000000000E+00  0.000000000000000E+00
  0.575000000000000E+00  0.425000000000000E+00  0.000000000000000E+00
  0.575000000000000E+00  0.475000000000000E+00  0.000000000000000E+00
  0.575000000000000E+00  0.525000000000000E+00  0.000000000000000E+00
  0.575000000000000E+00  0.575000000000000E+00  0.000000000000000E+00
  0.575000000000000E+00  0.625000000000000E+00  0.000000000000000E+00
  0.575000000000000E+00  0.675000000000000E+00  0.000000000000000E+00
  0.575000000000000E+00  0.725000000000000E+00  0.000000000000000E+00
  0.575000000000000E+00  0.775000000000000E+00  0.000000000000000E+00
  0.575000000000000E+00  0.825000000000000E+00  0.000000000000000E+00
  0.575000000000000E+00  0.875000000000000E+00  0.000000000000000E+00
  0.575000000000000E+00  0.925000000000000E+00  0.000000000000000E+00
  0.575000000000000E+00  0.975000000000000E+00  0.000000000000000E+00
  0.575000000000000E+00  0.100000000000000E+01  0.000000000000000E+00
  0.625000000000000E+00  0.000000000000000E+00  0.000000000000000E+00
  0.625000000000000E+00  0.750000000000000E-01  0.000000000000000E+00
  0.625000000000000E+00  0.125000000000000E+00  0.000000000000000E+00
  0.625000000000000E+00  0.175000000000000E+00  0.000000000000000E+00
  0.625000000000000E+00  0.225000000000000E+00  0.000000000000000E+00
  0.625000000000000E+00  0.275000000000000E+00  0.000000000000000E+00
  0.625000000000000E+00  0.325000000000000E+00  0.000000000000000E+00
  0.625000000000000E+00  0.375000000000000E+00  0.000000000000000E+00
  0.625000000000000E+00  0.425000000000000E+00  0.000000000000000E+00
  0.625000000000000E+00  0.475000000000000E+00  0.000000000000000E+00
  0.625000000000000E+00  0.525000000000000E+00  0.000000000000000E+00
  0.625000000000000E+00  0.575000000000000E+00  0.000000000000000E+00
  0.625000000000000E+00  0.625000000000000E+00  0.000000000000000E+00
  0.625000000000000E+00  0.675000000000000E+00  0.000000000000000E+00
  0.625000000000000E+00  0.725000000000000E+00  0.000000000000000E+00
  0.625000000000000E+00  0.775000000000000E+00  0.000000000000000E+00
  0.625000000000000E+00  0.825000000000000E+00  0.000000000000000E+00
  0.625000000000000E+00  0.875000000000000E+00  0.000000000000000E+00
  0.625000000000000E+00  0.925000000000000E+00  0.000000000000000E+00
  0.625000000000000E+00  0.975000000000000E+00  0.000000000000000E+00
  0.625000000000000E+00  0.100000000000000E+01  0.000000000000000E+00
  0.675000000000000E+00  0.000000000000000E+00  0.000000000000000E+00
  0.675000000000000E+00  0.750000000000000E-01  0.000000000000000E+00
  0.675000000000000E+00  0.125000000000000E+00  0.000000000000000E+00
  0.675000000000000E+00  0.175000000000000E+00  0.000000000000000E+00
  0.675000000000000E+00  0.225000000000000E+00  0.000000000000000E+00
  0.675000000000000E+00  0.275000000000000E+00  0.000000000000000E+00
  0.675000000000000E+00  0.325000000000000E+00  0.000000000000000E+00
  0.675000000000000E+00  0.375000000000000E+00  0.000000000000000E+00
  0.675000000000000E+00  0.425000000000000E+00  0.000000000000000E+00
  0.675000000000000E+00  0.475000000000000E+00  0.000000000000000E+00
  0.675000000000000E+00  0.525000000000000E+00  0.000000000000000E+00
  0.675000000000000E+00  0.575000000000000E+00  0.000000000000000E+00
  0.675000000000000E+00  0.625000000000000E+00  0.000000000000000E+00
  0.675000000000000E+00  0.675000000000000E+00  0.000000000000000E+00
  0.675000000000000E+00  0.725000000000000E+00  0.000000000000000E+00
  0.675000000000000E+00  0.775000000000000E+00  0.000000000000000E+00
  0.675000000000000E+00  0.825000000000000E+00  0.000000000000000E+00
  0.675000000000000E+00  0.875000000000000E+00  0.000000000000000E+00
  0.675000000000000E+00  0.925000000000000E+00  0.000000000000000E+00
  0.675000000000000E+00  0.975000000000000E+00  0.000000000000000E+00
  0.675000000000000E+00  0.100000000000000E+01  0.000000000000000E+00
  0.725000000000000E+00  0.000000000000000E+00  0.000000000000000E+00
  0.725000000000000E+00  0.750000000000000E-01  0.000000000000000E+00
  0.725000000000000E+00  0.125000000000000E+00  0.000000000000000E+00
  0.725000000000000E+00  0.175000000000000E+00  0.000000000000000E+00
  0.725000000000000E+00  0.225000000000000E+00  0.000000000000000E+00
  0.725000000000000E+00  0.275000000000000E+00  0.000000000000000E+00
  0.725000000000000E+00  0.325000000000000E+00  0.000000000000000E+00
  0.725000000000000E+00  0.375000000000000E+00  0.000000000000000E+00
  0.725000000000000E+00  0.425000000000000E+00  0.000000000000000E+00
  0.725000000000000E+00  0.475000000000000E+00  0.000000000000000E+00
  0.725000000000000E+00  0.525000000000000E+00  0.000000000000000E+00
  0.725000000000000E+00  0.575000000000000E+00  0.000000000000000E+00
  0.725000000000000E+00  0.625000000000000E+00  0.000000000000000E+00
  0.725000000000000E+00  0.675000000000000E+00  0.000000000000000E+00
  0.725000000000000E+00  0.725000000000000E+00  0.000000000000000E+00
  0.725000000000000E+00  0.775000000000000E+00  0.000000000000000E+00
  0.725000000000000E+00  0.825000000000000E+00  0.000000000000000E+00
  0.725000000000000E+00  0.875000000000000E+00  0.000000000000000E+00
  0.725000000000000E+00  0.925000000000000E+00  0.000000000000000E+00
  0.725000000000000E+00  0.975000000000000E+00  0.000000000000000E+00
  0.725000000000000E+00  0.100000000000000E+01  0.000000000000000E+00
  0.775000000000000E+00  0.000000000000000E+00  0.000000000000000E+00
  0.775000000000000E+00  0.750000000000000E-01  0.000000000000000E+00
  0.775000000000000E+00  0.125000000000000E+00  0.000000000000000E+00
  0.775000000000000E+00  0.175000000000000E+00  0.000000000000000E+00
  0.775000000000000E+00  0.225000000000000E+00  0.000000000000000E+00
  0.775000000000000E+00  0.275000000000000E+00  0.000000000000000E+00
  0.775000000000000E+00  0.325000000000000E+00  0.000000000000000E+00
  0.775000000000000E+00  0.375000000000000E+00  0.000000000000000E+00
  0.775000000000000E+00  0.425000000000000E+00  0.000000000000000E+00
  0.775000000000000E+00  0.475000000000000E+00  0.000000000000000E+00
  0.775000000000000E+00  0.525000000000000E+00  0.000000000000000E+00
  0.775000000000000E+00  0.575000000000000E+00  0.000000000000000E+00
  0.775000000000000E+00  0.625000000000000E+00  0.000000000000000E+00
  0.775000000000000E+00  0.675000000000000E+00  0.000000000000000E+00
  0.775000000000000E+00  0.725000000000000E+00  0.000000000000000E+00
  0.775000000000000E+00  0.775000000000000E+00  0.000000000000000E+00
  0.775000000000000E+00  0.825000000000000E+00  0.000000000000000E+00
  0.775000000000000E+00  0.875000000000000E+00  0.000000000000000E+00
  0.775000000000000E+00  0.925000000000000E+00  0.000000000000000E+00
  0.775000000000000E+00  0.975000000000000E+00  0.000000000000000E+00
  0.775000000000000E+00  0.100000000000000E+01  0.000000000000000E+00
  0.825000000000000E+00  0.000000000000000E+00  0.000000000000000E+00
  0.825000000000000E+00  0.750000000000000E-01  0.000000000000000E+00
  0.825000000000000E+00  0.125000000000000E+00  0.000000000000000E+00
  0.825000000000000E+00  0.175000000000000E+00  0.000000000000000E+00
  0.825000000000000E+00  0.225000000000000E+00  0.000000000000000E+00
  0.825000000000000E+00  0.275000000000000E+00  0.000000000000000E+00
  0.825000000000000E+00  0.325000000000000E+00  0.000000000000000E+00
  0.825000000000000E+00  0.375000000000000E+00  0.000000000000000E+00
  0.825000000000000E+00  0.425000000000000E+00  0.000000000000000E+00
  0.825000000000000E+00  0.475000000000000E+00  0.000000000000000E+00
  0.825000000000000E+00  0.525000000000000E+00  0.000000000000000E+00
  0.825000000000000E+00  0.575000000000000E+00  0.000000000000000E+00
  0.825000000000000E+00  0.625000000000000E+00  0.000000000000000E+00
  0.825000000000000E+00  0.675000000000000E+00  0.000000000000000E+00
  0.825000000000000E+00  0.725000000000000E+00  0.000000000000000E+00
  0.825000000000000E+00  0.775000000000000E+00  0.000000000000000E+00
  0.825000000000000E+00  0.825000000000000E+00  0.000000000000000E+00
  0.825000000000000E+00  0.875000000000000E+00  0.000000000000000E+00
  0.825000000000000E+00  0.925000000000000E+00  0.000000000000000E+00
  0.825000000000000E+00  0.975000000000000E+00  0.000000000000000E+00
  0.825000000000000E+00  0.100000000000000E+01  0.000000000000000E+00
  0.875000000000000E+00  0.000000000000000E+00  0.000000000000000E+00
  0.875000000000000E+00  0.750000000000000E-01  0.000000000000000E+00
  0.875000000000000E+00  0.125000000000000E+00  0.000000000000000E+00
  0.875000000000000E+00  0.175000000000000E+00  0.000000000000000E+00
  0.875000000000000E+00  0.225000000000000E+00  0.000000000000000E+00
  0.875000000000000E+00  0.275000000000000E+00  0.000000000000000E+00
  0.875000000000000E+00  0.325000000000000E+00  0.000000000000000E+00
  0.875000000000000E+00  0.375000000000000E+00  0.000000000000000E+00
  0.875000000000000E+00  0.425000000000000E+00  0.000000000000000E+00
  0.875000000000000E+00  0.475000000000000E+00  0.000000000000000E+00
  0.875000000000000E+00  0.525000000000000E+00  0.000000000000000E+00
  0.875000000000000E+00  0.575000000000000E+00  0.000000000000000E+00
  0.875000000000000E+00  0.625000000000000E+00  0.000000000000000E+00
  0.875000000000000E+00  0.675000000000000E+00  0.000000000000000E+00
  0.875000000000000E+00  0.725000000000000E+00  0.000000000000000E+00
  0.875000000000000E+00  0.775000000000000E+00  0.000000000000000E+00
  0.875000000000000E+00  0.825000000000000E+00  0.000000000000000E+00
  0.875000000000000E+00  0.875000000000000E+00  0.000000000000000E+00
  0.875000000000000E+00  0.925000000000000E+00  0.000000000000000E+00
  0.875000000000000E+00  0.975000000000000E+00  0.000000000000000E+00
  0.875000000000000E+00  0.100000000000000E+01  0.000000000000000E+00
  0.925000000000000E+00  0.000000000000000E+00  0.000000000000000E+00
  0.925000000000000E+00  0.750000000000000E-01  0.000000000000000E+00
  0.925000000000000E+00  0.125000000000000E+00  0.000000000000000E+00
  0.925000000000000E+00  0.175000000000000E+00  0.000000000000000E+00
  0.925000000000000E+00  0.225000000000000E+00  0.000000000000000E+00
  0.925000000000000E+00  0.275000000000000E+00  0.000000000000000E+00
  0.925000000000000E+00  0.325000000000000E+00  0.000000000000000E+00
  0.925000000000000E+00  0.375000000000000E+00  0.000000000000000E+00
  0.925000000000000E+00  0.425000000000000E+00  0.000000000000000E+00
  0.925000000000000E+00  0.475000000000000E+00  0.000000000000000E+00
  0.925000000000000E+00  0.525000000000000E+00  0.000000000000000E+00
  0.925000000000000E+00  0.575000000000000E+00  0.000000000000000E+00
  0.925000000000000E+00  0.625000000000000E+00  0.000000000000000E+00
  0.925000000000000E+00  0.675000000000000E+00  0.000000000000000E+00
  0.925000000000000E+00  0.725000000000000E+00  0.000000000000000E+00
  0.925000000000000E+00  0.775000000000000E+00  0.000000000000000E+00
  0.925000000000000E+00  0.825000000000000E+00  0.000000000000000E+00
  0.925000000000000E+00  0.875000000000000E+00  0.000000000000000E+00
  0.925000000000000E+00  0.925000000000000E+00  0.000000000000000E+00
  0.925000000000000E+00  0.975000000000000E+00  0.000000000000000E+00
  0.925000000000000E+00  0.100000000000000E+01  0.000000000000000E+00
  0.975000000000000E+00  0.000000000000000E+00  0.000000000000000E+00
  0.975000000000000E+00  0.750000000000000E-01  0.000000000000000E+00
  0.975000000000000E+00  0.125000000000000E+00  0.000000000000000E+00
  0.975000000000000E+00  0.175000000000000E+00  0.000000000000000E+00
  0.975000000000000E+00  0.225000000000000E+00  0.000000000000000E+00
  0.975000000000000E+00  0.275000000000000E+00  0.000000000000000E+00
  0.975000000000000E+00  0.325000000000000E+00  0.000000000000000E+00
  0.975000000000000E+00  0.375000000000000E+00  0.000000000000000E+00
  0.975000000000000E+00  0.425000000000000E+00  0.000000000000000E+00
  0.975000000000000E+00  0.475000000000000E+00  0.000000000000000E+00
  0.975000000000000E+00  0.525000000000000E+00  0.000000000000000E+00
  0.975000000000000E+00  0.575000000000000E+00  0.000000000000000E+00
  0.975000000000000E+00  0.625000000000000E+00  0.000000000000000E+00
  0.975000000000000E+00  0.675000000000000E+00  0.000000000000000E+00
  0.975000000000000E+00  0.725000000000000E+00  0.000000000000000E+00
  0.975000000000000E+00  0.775000000000000E+00  0.000000000000000E+00
  0.975000000000000E+00  0.825000000000000E+00  0.000000000000000E+00
  0.975000000000000E+00  0.875000000000000E+00  0.000000000000000E+00
  0.975000000000000E+00  0.925000000000000E+00  0.000000000000000E+00
  0.975000000000000E+00  0.975000000000000E+00  0.000000000000000E+00
  0.975000000000000E+00  0.100000000000000E+01  0.000000000000000E+00
  0.100000000000000E+01  0.000000000000000E+00  0.000000000000000E+00
  0.100000000000000E+01  0.750000000000000E-01  0.000000000000000E+00
  0.100000000000000E+01  0.125000000000000E+00  0.000000000000000E+00
  0.100000000000000E+01  0.175000000000000E+00  0.000000000000000E+00
  0.100000000000000E+01  0.225000000000000E+00  0.000000000000000E+00
  0.100000000000000E+01  0.275000000000000E+00  0.000000000000000E+00
  0.100000000000000E+01  0.325000000000000E+00  0.000000000000000E+00