 VARIABLES =  $x$  (c)
 ZONE I=         441 ,DATAPACKING=POINT
  0.000000000000000E+00  0.000000000000000E+00  0.227690741747530E-01
  0.000000000000000E+00  0.750000000000000E-01  0.229314286911709E-01
  0.000000000000000E+00  0.125000000000000E+00  0.232200589425803E-01
  0.000000000000000E+00  0.175000000000000E+00  0.236587489413388E-01
  0.000000000000000E+00  0.225000000000000E+00  0.242559467166455E-01
  0.000000000000000E+00  0.275000000000000E+00  0.250224655231560E-01
  0.000000000000000E+00  0.325000000000000E+00  0.259708554911547E-01
  0.000000000000000E+00  0.375000000000000E+00  0.271142667171368E-01
  0.000000000000000E+00  0.425000000000000E+00  0.284644506414524E-01
  0.000000000000000E+00  0.475000000000000E+00  0.300283310612196E-01
  0.000000000000000E+00  0.525000000000000E+00  0.318022334965070E-01
  0.000000000000000E+00  0.575000000000000E+00  0.337623170677280E-01
  0.000000000000000E+00  0.625000000000000E+00  0.358488444720287E-01
  0.000000000000000E+00  0.675000000000000E+00  0.379400682217068E-01
  0.000000000000000E+00  0.725000000000000E+00  0.398064757394288E-01
  0.000000000000000E+00  0.775000000000000E+00  0.410224312212388E-01
  0.000000000000000E+00  0.825000000000000E+00  0.407881768870225E-01
  0.000000000000000E+00  0.875000000000000E+00  0.376208076210357E-01
  0.000000000000000E+00  0.925000000000000E+00  0.290476482632532E-01
  0.000000000000000E+00  0.975000000000000E+00  0.119890269321556E-01
  0.000000000000000E+00  0.100000000000000E+01  0.000000000000000E+00
  0.750000000000000E-01  0.000000000000000E+00  0.224868233580661E-01
  0.750000000000000E-01  0.750000000000000E-01  0.226427057321691E-01
  0.750000000000000E-01  0.125000000000000E+00  0.229198299527965E-01
  0.750000000000000E-01  0.175000000000000E+00  0.233416085286112E-01
  0.750000000000000E-01  0.225000000000000E+00  0.239171604013498E-01
  0.750000000000000E-01  0.275000000000000E+00  0.246585546815061E-01
  0.750000000000000E-01  0.325000000000000E+00  0.255806166099914E-01
  0.750000000000000E-01  0.375000000000000E+00  0.267004958477993E-01
  0.750000000000000E-01  0.425000000000000E+00  0.280368013982027E-01
  0.750000000000000E-01  0.475000000000000E+00  0.296079800582696E-01
  0.750000000000000E-01  0.525000000000000E+00  0.314294003495044E-01
  0.750000000000000E-01  0.575000000000000E+00  0.335082254145840E-01
  0.750000000000000E-01  0.625000000000000E+00  0.358343712214501E-01
  0.750000000000000E-01  0.675000000000000E+00  0.383635516599268E-01
  0.750000000000000E-01  0.725000000000000E+00  0.409801838922778E-01
  0.750000000000000E-01  0.775000000000000E+00  0.434018953002317E-01
  0.750000000000000E-01  0.825000000000000E+00  0.449315496421043E-01
  0.750000000000000E-01  0.875000000000000E+00  0.439151983652489E-01
  0.750000000000000E-01  0.925000000000000E+00  0.368722581041158E-01
  0.750000000000000E-01  0.975000000000000E+00  0.176285816647581E-01
  0.750000000000000E-01  0.100000000000000E+01  0.000000000000000E+00
  0.125000000000000E+00  0.000000000000000E+00  0.220693764594939E-01
  0.125000000000000E+00  0.750000000000000E-01  0.222153561811285E-01
  0.125000000000000E+00  0.125000000000000E+00  0.224748756862565E-01
  0.125000000000000E+00  0.175000000000000E+00  0.228706167392303E-01
  0.125000000000000E+00  0.225000000000000E+00  0.234124418868136E-01
  0.125000000000000E+00  0.275000000000000E+00  0.241138696431176E-01
  0.125000000000000E+00  0.325000000000000E+00  0.249924323705467E-01
  0.125000000000000E+00  0.375000000000000E+00  0.260701442268487E-01
  0.125000000000000E+00  0.425000000000000E+00  0.273740890127529E-01
  0.125000000000000E+00  0.475000000000000E+00  0.289371290256964E-01
  0.125000000000000E+00  0.525000000000000E+00  0.307986973457061E-01
  0.125000000000000E+00  0.575000000000000E+00  0.330054929764369E-01
  0.125000000000000E+00  0.625000000000000E+00  0.356112919403471E-01
  0.125000000000000E+00  0.675000000000000E+00  0.386722187476299E-01
  0.125000000000000E+00  0.725000000000000E+00  0.422213732525280E-01
  0.125000000000000E+00  0.775000000000000E+00  0.461646389587428E-01
  0.125000000000000E+00  0.825000000000000E+00  0.499429201738291E-01
  0.125000000000000E+00  0.875000000000000E+00  0.516908485497419E-01
  0.125000000000000E+00  0.925000000000000E+00  0.466457907118502E-01
  0.125000000000000E+00  0.975000000000000E+00  0.246972165307480E-01
  0.125000000000000E+00  0.100000000000000E+01  0.000000000000000E+00
  0.175000000000000E+00  0.000000000000000E+00  0.215257331914031E-01
  0.175000000000000E+00  0.750000000000000E-01  0.216581730154537E-01
  0.175000000000000E+00  0.125000000000000E+00  0.218936215915438E-01
  0.175000000000000E+00  0.175000000000000E+00  0.222534560673451E-01
  0.175000000000000E+00  0.225000000000000E+00  0.227480224487726E-01
  0.175000000000000E+00  0.275000000000000E+00  0.233919296826310E-01
  0.175000000000000E+00  0.325000000000000E+00  0.242049481815263E-01
  0.175000000000000E+00  0.375000000000000E+00  0.252133651603368E-01
  0.175000000000000E+00  0.425000000000000E+00  0.264520170932641E-01
  0.175000000000000E+00  0.475000000000000E+00  0.279673375172845E-01
  0.175000000000000E+00  0.525000000000000E+00  0.298219129780511E-01
  0.175000000000000E+00  0.575000000000000E+00  0.321011617222351E-01
  0.175000000000000E+00  0.625000000000000E+00  0.349223539417942E-01
  0.175000000000000E+00  0.675000000000000E+00  0.384427114526097E-01
  0.175000000000000E+00  0.725000000000000E+00  0.428463623592250E-01
  0.175000000000000E+00  0.775000000000000E+00  0.482310158985612E-01
  0.175000000000000E+00  0.825000000000000E+00  0.541769448200191E-01
  0.175000000000000E+00  0.875000000000000E+00  0.586015355956076E-01
  0.175000000000000E+00  0.925000000000000E+00  0.554728604764552E-01
  0.175000000000000E+00  0.975000000000000E+00  0.309988666661988E-01
  0.175000000000000E+00  0.100000000000000E+01  0.000000000000000E+00
  0.225000000000000E+00  0.000000000000000E+00  0.208680389155410E-01
  0.225000000000000E+00  0.750000000000000E-01  0.209831902818365E-01
  0.225000000000000E+00  0.125000000000000E+00  0.211879038219172E-01
  0.225000000000000E+00  0.175000000000000E+00  0.215014800159141E-01
  0.225000000000000E+00  0.225000000000000E+00  0.219341639900680E-01
  0.225000000000000E+00  0.275000000000000E+00  0.225007545975131E-01
  0.225000000000000E+00  0.325000000000000E+00  0.232219016906057E-01
  0.225000000000000E+00  0.375000000000000E+00  0.241261244132728E-01
  0.225000000000000E+00  0.425000000000000E+00  0.252529376174572E-01
  0.225000000000000E+00  0.475000000000000E+00  0.266576964771593E-01
  0.225000000000000E+00  0.525000000000000E+00  0.284190883364225E-01
  0.225000000000000E+00  0.575000000000000E+00  0.306505521064588E-01
  0.225000000000000E+00  0.625000000000000E+00  0.335166945353823E-01
  0.225000000000000E+00  0.675000000000000E+00  0.372517841835836E-01
  0.225000000000000E+00  0.725000000000000E+00  0.421567626010063E-01
  0.225000000000000E+00  0.775000000000000E+00  0.484789603488480E-01
  0.225000000000000E+00  0.825000000000000E+00  0.559087980181000E-01
  0.225000000000000E+00  0.875000000000000E+00  0.622070605041739E-01
  0.225000000000000E+00  0.925000000000000E+00  0.604502122671819E-01
  0.225000000000000E+00  0.975000000000000E+00  0.345221143042995E-01
  0.225000000000000E+00  0.100000000000000E+01  0.000000000000000E+00
  0.275000000000000E+00  0.000000000000000E+00  0.201115779282928E-01
  0.275000000000000E+00  0.750000000000000E-01  0.202057808331681E-01
  0.275000000000000E+00  0.125000000000000E+00  0.203732526640576E-01
  0.275000000000000E+00  0.175000000000000E+00  0.206303208173216E-01
  0.275000000000000E+00  0.225000000000000E+00  0.209863088955389E-01
  0.275000000000000E+00  0.275000000000000E+00  0.214549055567602E-01
  0.275000000000000E+00  0.325000000000000E+00  0.220556164409921E-01
  0.275000000000000E+00  0.375000000000000E+00  0.228160524653866E-01
  0.275000000000000E+00  0.425000000000000E+00  0.237755221435259E-01
  0.275000000000000E+00  0.475000000000000E+00  0.249906732951479E-01
  0.275000000000000E+00  0.525000000000000E+00  0.265443378391642E-01
  0.275000000000000E+00  0.575000000000000E+00  0.285592148333689E-01
  0.275000000000000E+00  0.625000000000000E+00  0.312179376070210E-01
  0.275000000000000E+00  0.675000000000000E+00  0.347869152107027E-01
  0.275000000000000E+00  0.725000000000000E+00  0.396192636748101E-01
  0.275000000000000E+00  0.775000000000000E+00  0.460348049547913E-01
  0.275000000000000E+00  0.825000000000000E+00  0.537938090184171E-01
  0.275000000000000E+00  0.875000000000000E+00  0.606516912576554E-01
  0.275000000000000E+00  0.925000000000000E+00  0.595043980848860E-01
  0.275000000000000E+00  0.975000000000000E+00  0.340093405968654E-01
  0.275000000000000E+00  0.100000000000000E+01  0.000000000000000E+00
  0.325000000000000E+00  0.000000000000000E+00  0.192746181787017E-01
  0.325000000000000E+00  0.750000000000000E-01  0.193445764764671E-01
  0.325000000000000E+00  0.125000000000000E+00  0.194689467836056E-01
  0.325000000000000E+00  0.175000000000000E+00  0.196601800448066E-01
  0.325000000000000E+00  0.225000000000000E+00  0.199257706668460E-01
  0.325000000000000E+00  0.275000000000000E+00  0.202768420407316E-01
  0.325000000000000E+00  0.325000000000000E+00  0.207294608802181E-01
  0.325000000000000E+00  0.375000000000000E+00  0.213067210609590E-01
  0.325000000000000E+00  0.425000000000000E+00  0.220420351421620E-01
  0.325000000000000E+00  0.475000000000000E+00  0.229843358988515E-01
  0.325000000000000E+00  0.525000000000000E+00  0.242062833038456E-01
  0.325000000000000E+00  0.575000000000000E+00  0.258170463640688E-01
  0.325000000000000E+00  0.625000000000000E+00  0.279811941862993E-01
  0.325000000000000E+00  0.675000000000000E+00  0.309414815955463E-01
  0.325000000000000E+00  0.725000000000000E+00  0.350231813029330E-01
  0.325000000000000E+00  0.775000000000000E+00  0.405268056069724E-01
  0.325000000000000E+00  0.825000000000000E+00  0.472494038751878E-01
  0.325000000000000E+00  0.875000000000000E+00  0.531684158320746E-01
  0.325000000000000E+00  0.925000000000000E+00  0.519026419991417E-01
  0.325000000000000E+00  0.975000000000000E+00  0.292001314638065E-01
  0.325000000000000E+00  0.100000000000000E+01  0.000000000000000E+00
  0.375000000000000E+00  0.000000000000000E+00  0.183780599239620E-01
  0.375000000000000E+00  0.750000000000000E-01  0.184211431871877E-01
  0.375000000000000E+00  0.125000000000000E+00  0.184977356551444E-01
  0.375000000000000E+00  0.175000000000000E+00  0.186156379322882E-01
  0.375000000000000E+00  0.225000000000000E+00  0.187796981683577E-01
  0.375000000000000E+00  0.275000000000000E+00  0.189971574376331E-01
  0.375000000000000E+00  0.325000000000000E+00  0.192785538711793E-01
  0.375000000000000E+00  0.375000000000000E+00  0.196391575633422E-01
  0.375000000000000E+00  0.425000000000000E+00  0.201012388219454E-01
  0.375000000000000E+00  0.475000000000000E+00  0.206976547188000E-01
  0.375000000000000E+00  0.525000000000000E+00  0.214775109974308E-01
  0.375000000000000E+00  0.575000000000000E+00  0.225149842735905E-01
  0.375000000000000E+00  0.625000000000000E+00  0.239223538581371E-01
  0.375000000000000E+00  0.675000000000000E+00  0.258655970955988E-01
  0.375000000000000E+00  0.725000000000000E+00  0.285663301258390E-01
  0.375000000000000E+00  0.775000000000000E+00  0.322217329031450E-01
  0.375000000000000E+00  0.825000000000000E+00  0.366482082525703E-01
  0.375000000000000E+00  0.875000000000000E+00  0.402972661517806E-01
  0.375000000000000E+00  0.925000000000000E+00  0.384033143383400E-01
  0.375000000000000E+00  0.975000000000000E+00  0.208177157379691E-01
  0.375000000000000E+00  0.100000000000000E+01  0.000000000000000E+00
  0.425000000000000E+00  0.000000000000000E+00  0.174448735417627E-01
  0.425000000000000E+00  0.750000000000000E-01  0.174593875628279E-01
  0.425000000000000E+00  0.125000000000000E+00  0.174851902669438E-01
  0.425000000000000E+00  0.175000000000000E+00  0.175249130677747E-01
  0.425000000000000E+00  0.225000000000000E+00  0.175801965784823E-01
  0.425000000000000E+00  0.275000000000000E+00  0.176534937768779E-01
  0.425000000000000E+00  0.325000000000000E+00  0.177483756039380E-01
  0.425000000000000E+00  0.375000000000000E+00  0.178700101276447E-01
  0.425000000000000E+00  0.425000000000000E+00  0.180259086696027E-01
  0.425000000000000E+00  0.475000000000000E+00  0.182270847087860E-01
  0.425000000000000E+00  0.525000000000000E+00  0.184898465484474E-01
  0.425000000000000E+00  0.575000000000000E+00  0.188385254492139E-01
  0.425000000000000E+00  0.625000000000000E+00  0.193093633404418E-01
  0.425000000000000E+00  0.675000000000000E+00  0.199546215934028E-01
  0.425000000000000E+00  0.725000000000000E+00  0.208396903197194E-01
  0.425000000000000E+00  0.775000000000000E+00  0.220018457755008E-01
  0.425000000000000E+00  0.825000000000000E+00  0.232746733131008E-01
  0.425000000000000E+00  0.875000000000000E+00  0.237914961367274E-01
  0.425000000000000E+00  0.925000000000000E+00  0.210731556661811E-01
  0.425000000000000E+00  0.975000000000000E+00  0.103532669705849E-01
  0.425000000000000E+00  0.100000000000000E+01  0.000000000000000E+00
  0.475000000000000E+00  0.000000000000000E+00  0.164993502466775E-01
  0.475000000000000E+00  0.750000000000000E-01  0.164847224532754E-01
  0.475000000000000E+00  0.125000000000000E+00  0.164587174872273E-01
  0.475000000000000E+00  0.175000000000000E+00  0.164186204143083E-01
  0.475000000000000E+00  0.225000000000000E+00  0.163626729042318E-01
  0.475000000000000E+00  0.275000000000000E+00  0.162882338175313E-01
  0.475000000000000E+00  0.325000000000000E+00  0.161914267189811E-01
  0.475000000000000E+00  0.375000000000000E+00  0.160665685816258E-01
  0.475000000000000E+00  0.425000000000000E+00  0.159052435238815E-01
  0.475000000000000E+00  0.475000000000000E+00  0.156947946684008E-01
  0.475000000000000E+00  0.525000000000000E+00  0.154158636889127E-01
  0.475000000000000E+00  0.575000000000000E+00  0.150384090479279E-01
  0.475000000000000E+00  0.625000000000000E+00  0.145154916986340E-01
  0.475000000000000E+00  0.675000000000000E+00  0.137746175446016E-01
  0.475000000000000E+00  0.725000000000000E+00  0.127093708016020E-01
  0.475000000000000E+00  0.775000000000000E+00  0.111817519816948E-01
  0.475000000000000E+00  0.825000000000000E+00  0.905210319641659E-02
  0.475000000000000E+00  0.875000000000000E+00  0.623798491067242E-02
  0.475000000000000E+00  0.925000000000000E+00  0.282574421623867E-02
  0.475000000000000E+00  0.975000000000000E+00 -0.292489370538168E-03
  0.475000000000000E+00  0.100000000000000E+01  0.000000000000000E+00
  0.525000000000000E+00  0.000000000000000E+00  0.155662250091839E-01
  0.525000000000000E+00  0.750000000000000E-01  0.155230676969123E-01
  0.525000000000000E+00  0.125000000000000E+00  0.154463435862073E-01
  0.525000000000000E+00  0.175000000000000E+00  0.153281844624788E-01
  0.525000000000000E+00  0.225000000000000E+00  0.151636480896851E-01
  0.525000000000000E+00  0.275000000000000E+00  0.149453520769894E-01
  0.525000000000000E+00  0.325000000000000E+00  0.146625448590824E-01
  0.525000000000000E+00  0.375000000000000E+00  0.142996214821371E-01
  0.525000000000000E+00  0.425000000000000E+00  0.138337567258672E-01
  0.525000000000000E+00  0.475000000000000E+00  0.132311206619580E-01
  0.525000000000000E+00  0.525000000000000E+00  0.124408209029516E-01
  0.525000000000000E+00  0.575000000000000E+00  0.113852907303245E-01
  0.525000000000000E+00  0.625000000000000E+00  0.994565173158893E-02
  0.525000000000000E+00  0.675000000000000E+00  0.794250704224372E-02
  0.525000000000000E+00  0.725000000000000E+00  0.512366461739046E-02
  0.525000000000000E+00  0.775000000000000E+00  0.120677981688581E-02
  0.525000000000000E+00  0.825000000000000E+00 -0.390172638802268E-02
  0.525000000000000E+00  0.875000000000000E+00 -0.953365794499662E-02
  0.525000000000000E+00  0.925000000000000E+00 -0.132334252748439E-01
  0.525000000000000E+00  0.975000000000000E+00 -0.923903394573931E-02
  0.525000000000000E+00  0.100000000000000E+01  0.000000000000000E+00
  0.575000000000000E+00  0.000000000000000E+00  0.146697555552518E-01
  0.575000000000000E+00  0.750000000000000E-01  0.145997949624462E-01
  0.575000000000000E+00  0.125000000000000E+00  0.144754205752361E-01
  0.575000000000000E+00  0.175000000000000E+00  0.142841389435220E-01
  0.575000000000000E+00  0.225000000000000E+00  0.140183970588533E-01
  0.575000000000000E+00  0.275000000000000E+00  0.136670006692524E-01
  0.575000000000000E+00  0.325000000000000E+00  0.132138086428789E-01
  0.575000000000000E+00  0.375000000000000E+00  0.126356663105357E-01
  0.575000000000000E+00  0.425000000000000E+00  0.118991439713827E-01
  0.575000000000000E+00  0.475000000000000E+00  0.109553807453982E-01
  0.575000000000000E+00  0.525000000000000E+00  0.973192892227767E-02
  0.575000000000000E+00  0.575000000000000E+00  0.811997067716915E-02
  0.575000000000000E+00  0.625000000000000E+00  0.595511555315099E-02
  0.575000000000000E+00  0.675000000000000E+00  0.299288195131513E-02
  0.575000000000000E+00  0.725000000000000E+00 -0.110361921739777E-02
  0.575000000000000E+00  0.775000000000000E+00 -0.668996211913826E-02
  0.575000000000000E+00  0.825000000000000E+00 -0.137849964376917E-01
  0.575000000000000E+00  0.875000000000000E+00 -0.211281225681473E-01
  0.575000000000000E+00  0.925000000000000E+00 -0.245306833139236E-01
  0.575000000000000E+00  0.975000000000000E+00 -0.150449490722567E-01
  0.575000000000000E+00  0.100000000000000E+01  0.000000000000000E+00
  0.625000000000000E+00  0.000000000000000E+00  0.138328495216329E-01
  0.625000000000000E+00  0.750000000000000E-01  0.137387362888159E-01
  0.625000000000000E+00  0.125000000000000E+00  0.135714238749190E-01
  0.625000000000000E+00  0.175000000000000E+00  0.133145666701827E-01
  0.625000000000000E+00  0.225000000000000E+00  0.129588120898877E-01
  0.625000000000000E+00  0.275000000000000E+00  0.124904592232290E-01
  0.625000000000000E+00  0.325000000000000E+00  0.118900442046903E-01
  0.625000000000000E+00  0.375000000000000E+00  0.111301282657410E-01
  0.625000000000000E+00  0.425000000000000E+00  0.101718545676084E-01
  0.625000000000000E+00  0.475000000000000E+00  0.895958629057812E-02
  0.625000000000000E+00  0.525000000000000E+00  0.741256385694201E-02
  0.625000000000000E+00  0.575000000000000E+00  0.541206200209344E-02
  0.625000000000000E+00  0.625000000000000E+00  0.278251551433692E-02
  0.625000000000000E+00  0.675000000000000E+00 -0.731538272033820E-03
  0.625000000000000E+00  0.725000000000000E+00 -0.547241586322593E-02
  0.625000000000000E+00  0.775000000000000E+00 -0.117758994357117E-01
  0.625000000000000E+00  0.825000000000000E+00 -0.195514026658181E-01
  0.625000000000000E+00  0.875000000000000E+00 -0.271798638633854E-01
  0.625000000000000E+00  0.925000000000000E+00 -0.296551445377615E-01
  0.625000000000000E+00  0.975000000000000E+00 -0.170313149212141E-01
  0.625000000000000E+00  0.100000000000000E+01  0.000000000000000E+00
  0.675000000000000E+00  0.000000000000000E+00  0.130763220658078E-01
  0.675000000000000E+00  0.750000000000000E-01  0.129613619487467E-01
  0.675000000000000E+00  0.125000000000000E+00  0.127569884073048E-01
  0.675000000000000E+00  0.175000000000000E+00  0.124438982306354E-01
  0.675000000000000E+00  0.225000000000000E+00  0.120118265488704E-01
  0.675000000000000E+00  0.275000000000000E+00  0.114459787700973E-01
  0.675000000000000E+00  0.325000000000000E+00  0.107257784544302E-01
  0.675000000000000E+00  0.375000000000000E+00  0.982294678134457E-02
  0.675000000000000E+00  0.425000000000000E+00  0.869857703574733E-02
  0.675000000000000E+00  0.475000000000000E+00  0.729868722193818E-02
  0.675000000000000E+00  0.525000000000000E+00  0.554748650074106E-02
  0.675000000000000E+00  0.575000000000000E+00  0.333733984193396E-02
  0.675000000000000E+00  0.625000000000000E+00  0.514671617333521E-03
  0.675000000000000E+00  0.675000000000000E+00 -0.313547020279237E-02
  0.675000000000000E+00  0.725000000000000E+00 -0.788597502353079E-02
  0.675000000000000E+00  0.775000000000000E+00 -0.139652191643153E-01
  0.675000000000000E+00  0.825000000000000E+00 -0.211434909020759E-01
  0.675000000000000E+00  0.875000000000000E+00 -0.276877457398382E-01
  0.675000000000000E+00  0.925000000000000E+00 -0.287206825307491E-01
  0.675000000000000E+00  0.975000000000000E+00 -0.154365992440582E-01
  0.675000000000000E+00  0.100000000000000E+01  0.000000000000000E+00
  0.725000000000000E+00  0.000000000000000E+00  0.124183409996639E-01
  0.725000000000000E+00  0.750000000000000E-01  0.122861985486834E-01
  0.725000000000000E+00  0.125000000000000E+00  0.120512786358290E-01
  0.725000000000000E+00  0.175000000000000E+00  0.116922067804099E-01
  0.725000000000000E+00  0.225000000000000E+00  0.111986031677468E-01
  0.725000000000000E+00  0.275000000000000E+00  0.105558288935936E-01
  0.725000000000000E+00  0.325000000000000E+00  0.974411197275071E-02
  0.725000000000000E+00  0.375000000000000E+00  0.873725686274520E-02
  0.725000000000000E+00  0.425000000000000E+00  0.750076245367493E-02
  0.725000000000000E+00  0.475000000000000E+00  0.598909953004543E-02
  0.725000000000000E+00  0.525000000000000E+00  0.414182517170437E-02
  0.725000000000000E+00  0.575000000000000E+00  0.187822482128023E-02
  0.725000000000000E+00  0.625000000000000E+00 -0.909275813746042E-03
  0.725000000000000E+00  0.675000000000000E+00 -0.435940355123011E-02
  0.725000000000000E+00  0.725000000000000E+00 -0.862595929361295E-02
  0.725000000000000E+00  0.775000000000000E+00 -0.137755037170931E-01
  0.725000000000000E+00  0.825000000000000E+00 -0.194328758570674E-01
  0.725000000000000E+00  0.875000000000000E+00 -0.239538611974610E-01
  0.725000000000000E+00  0.925000000000000E+00 -0.233138010874716E-01
  0.725000000000000E+00  0.975000000000000E+00 -0.113558591731046E-01
  0.725000000000000E+00  0.100000000000000E+01  0.000000000000000E+00
  0.775000000000000E+00  0.000000000000000E+00  0.118740817321299E-01
  0.775000000000000E+00  0.750000000000000E-01  0.117285113401602E-01
  0.775000000000000E+00  0.125000000000000E+00  0.114697195322140E-01
  0.775000000000000E+00  0.175000000000000E+00  0.110750297264991E-01
  0.775000000000000E+00  0.225000000000000E+00  0.105345205141453E-01
  0.775000000000000E+00  0.275000000000000E+00  0.983457931271439E-02
  0.775000000000000E+00  0.325000000000000E+00  0.895752481520386E-02
  0.775000000000000E+00  0.375000000000000E+00  0.788112316520707E-02
  0.775000000000000E+00  0.425000000000000E+00  0.657800460840636E-02
  0.775000000000000E+00  0.475000000000000E+00  0.501501969512078E-02
  0.775000000000000E+00  0.525000000000000E+00  0.315266194067983E-02
  0.775000000000000E+00  0.575000000000000E+00  0.944919771142331E-03
  0.775000000000000E+00  0.625000000000000E+00 -0.165934269560091E-02
  0.775000000000000E+00  0.675000000000000E+00 -0.470959770104090E-02
  0.775000000000000E+00  0.725000000000000E+00 -0.822700338051729E-02
  0.775000000000000E+00  0.775000000000000E+00 -0.121112162676906E-01
  0.775000000000000E+00  0.825000000000000E+00 -0.158743292186882E-01
  0.775000000000000E+00  0.875000000000000E+00 -0.181028172555456E-01
  0.775000000000000E+00  0.925000000000000E+00 -0.159736422396842E-01
  0.775000000000000E+00  0.975000000000000E+00 -0.644975165999473E-02
  0.775000000000000E+00  0.100000000000000E+01  0.000000000000000E+00
  0.825000000000000E+00  0.000000000000000E+00  0.114555777091234E-01
  0.825000000000000E+00  0.750000000000000E-01  0.113002263915344E-01
  0.825000000000000E+00  0.125000000000000E+00  0.110240462713763E-01
  0.825000000000000E+00  0.175000000000000E+00  0.106036429086490E-01
  0.825000000000000E+00  0.225000000000000E+00  0.100298266479646E-01
  0.825000000000000E+00  0.275000000000000E+00  0.929038544695394E-02
  0.825000000000000E+00  0.325000000000000E+00  0.837020857918789E-02
  0.825000000000000E+00  0.375000000000000E+00  0.725160400326777E-02
  0.825000000000000E+00  0.425000000000000E+00  0.591497866124023E-02
  0.825000000000000E+00  0.475000000000000E+00  0.434016518264502E-02
  0.825000000000000E+00  0.525000000000000E+00  0.250887546222530E-02
  0.825000000000000E+00  0.575000000000000E+00  0.409114322096200E-03
  0.825000000000000E+00  0.625000000000000E+00 -0.195688825978803E-02
  0.825000000000000E+00  0.675000000000000E+00 -0.455770814654719E-02
  0.825000000000000E+00  0.725000000000000E+00 -0.730095041491129E-02
  0.825000000000000E+00  0.775000000000000E+00 -0.995804608899181E-02
  0.825000000000000E+00  0.825000000000000E+00 -0.119962512270617E-01
  0.825000000000000E+00  0.875000000000000E+00 -0.123199350483228E-01
  0.825000000000000E+00  0.925000000000000E+00 -0.929862617843158E-02
  0.825000000000000E+00  0.975000000000000E+00 -0.243774195742935E-02
  0.825000000000000E+00  0.100000000000000E+01  0.000000000000000E+00
  0.875000000000000E+00  0.000000000000000E+00  0.111717212576135E-01
  0.875000000000000E+00  0.750000000000000E-01  0.110100288271855E-01
  0.875000000000000E+00  0.125000000000000E+00  0.107225756175358E-01
  0.875000000000000E+00  0.175000000000000E+00  0.102856321589317E-01
  0.875000000000000E+00  0.225000000000000E+00  0.969070731044869E-02
  0.875000000000000E+00  0.275000000000000E+00  0.892686304132301E-02
  0.875000000000000E+00  0.325000000000000E+00  0.798123894510205E-02
  0.875000000000000E+00  0.375000000000000E+00  0.684000264059916E-02
  0.875000000000000E+00  0.425000000000000E+00  0.549001277748105E-02
  0.875000000000000E+00  0.475000000000000E+00  0.392164527770548E-02
  0.875000000000000E+00  0.525000000000000E+00  0.213348349484516E-02
  0.875000000000000E+00  0.575000000000000E+00  0.139948158068374E-03
  0.875000000000000E+00  0.625000000000000E+00 -0.201648178675841E-02
  0.875000000000000E+00  0.675000000000000E+00 -0.424577772477523E-02
  0.875000000000000E+00  0.725000000000000E+00 -0.637867223868129E-02
  0.875000000000000E+00  0.775000000000000E+00 -0.811412635605561E-02
  0.875000000000000E+00  0.825000000000000E+00 -0.894294305807974E-02
  0.875000000000000E+00  0.875000000000000E+00 -0.811416011722960E-02
  0.875000000000000E+00  0.925000000000000E+00 -0.496518406426819E-02
  0.875000000000000E+00  0.975000000000000E+00 -0.420022369996681E-03
  0.875000000000000E+00  0.100000000000000E+01  0.000000000000000E+00
  0.925000000000000E+00  0.000000000000000E+00  0.110283503202328E-01
  0.925000000000000E+00  0.750000000000000E-01  0.108635498610334E-01
  0.925000000000000E+00  0.125000000000000E+00  0.105705712669011E-01
  0.925000000000000E+00  0.175000000000000E+00  0.101255650868097E-01
  0.925000000000000E+00  0.225000000000000E+00  0.952045820811155E-02
  0.925000000000000E+00  0.275000000000000E+00  0.874505998944844E-02
  0.925000000000000E+00  0.325000000000000E+00  0.778780823747505E-02
  0.925000000000000E+00  0.375000000000000E+00  0.663706669087408E-02
  0.925000000000000E+00  0.425000000000000E+00  0.528332135969324E-02
  0.925000000000000E+00  0.475000000000000E+00  0.372280910920150E-02
  0.925000000000000E+00  0.525000000000000E+00  0.196338033653689E-02
  0.925000000000000E+00  0.575000000000000E+00  0.337660631494385E-04
  0.925000000000000E+00  0.625000000000000E+00 -0.200211575567146E-02
  0.925000000000000E+00  0.675000000000000E+00 -0.402372459273267E-02
  0.925000000000000E+00  0.725000000000000E+00 -0.582352066515754E-02
  0.925000000000000E+00  0.775000000000000E+00 -0.707081644798800E-02
  0.925000000000000E+00  0.825000000000000E+00 -0.729775021840584E-02
  0.925000000000000E+00  0.875000000000000E+00 -0.601193678502231E-02
  0.925000000000000E+00  0.925000000000000E+00 -0.316950884629535E-02
  0.925000000000000E+00  0.975000000000000E+00 -0.192069052900751E-03
  0.925000000000000E+00  0.100000000000000E+01  0.000000000000000E+00
  0.975000000000000E+00  0.000000000000000E+00  0.110104289530602E-01
  0.975000000000000E+00  0.750000000000000E-01  0.108452399902643E-01
  0.975000000000000E+00  0.125000000000000E+00  0.105515707230718E-01
  0.975000000000000E+00  0.175000000000000E+00  0.101055567027944E-01
  0.975000000000000E+00  0.225000000000000E+00  0.949917707031940E-02
  0.975000000000000E+00  0.275000000000000E+00  0.872233460796412E-02
  0.975000000000000E+00  0.325000000000000E+00  0.776362939902167E-02
  0.975000000000000E+00  0.375000000000000E+00  0.661169969715844E-02
  0.975000000000000E+00  0.425000000000000E+00  0.525748493246976E-02
  0.975000000000000E+00  0.475000000000000E+00  0.369795458813851E-02
  0.975000000000000E+00  0.525000000000000E+00  0.194211744174836E-02
  0.975000000000000E+00  0.575000000000000E+00  0.204933012845715E-04
  0.975000000000000E+00  0.625000000000000E+00 -0.200032000178560E-02
  0.975000000000000E+00  0.675000000000000E+00 -0.399596795122735E-02
  0.975000000000000E+00  0.725000000000000E+00 -0.575412671846707E-02
  0.975000000000000E+00  0.775000000000000E+00 -0.694040270947955E-02
  0.975000000000000E+00  0.825000000000000E+00 -0.709210111344660E-02
  0.975000000000000E+00  0.875000000000000E+00 -0.574915886849640E-02
  0.975000000000000E+00  0.925000000000000E+00 -0.294504944404874E-02
  0.975000000000000E+00  0.975000000000000E+00 -0.163574888263759E-03
  0.975000000000000E+00  0.100000000000000E+01  0.000000000000000E+00
  0.100000000000000E+01  0.000000000000000E+00  0.230938353556094E-01
  0.100000000000000E+01  0.750000000000000E-01  0.233889377493337E-01
  0.100000000000000E+01  0.125000000000000E+00  0.238371404234981E-01
  0.100000000000000E+01  0.175000000000000E+00  0.244465140189994E-01
  0.100000000000000E+01  0.225000000000000E+00  0.252271653715840E-01
  0.100000000000000E+01  0.275000000000000E+00  0.261903648618090E-01
  0.100000000000000E+01  0.325000000000000E+00  0.273470128311392E-01