 VARIABLES =  $x$  (d)
 ZONE I=         441 ,DATAPACKING=POINT
  0.000000000000000E+00  0.000000000000000E+00  0.220934011312036E-01
  0.000000000000000E+00  0.750000000000000E-01  0.222477629038703E-01
  0.000000000000000E+00  0.125000000000000E+00  0.225221838330556E-01
  0.000000000000000E+00  0.175000000000000E+00  0.229398541735897E-01
  0.000000000000000E+00  0.225000000000000E+00  0.235098139545588E-01
  0.000000000000000E+00  0.275000000000000E+00  0.242440307689511E-01
  0.000000000000000E+00  0.325000000000000E+00  0.251572110278489E-01
  0.000000000000000E+00  0.375000000000000E+00  0.262663778131060E-01
  0.000000000000000E+00  0.425000000000000E+00  0.275900228657240E-01
  0.000000000000000E+00  0.475000000000000E+00  0.291465151229249E-01
  0.000000000000000E+00  0.525000000000000E+00  0.309512376257330E-01
  0.000000000000000E+00  0.575000000000000E+00  0.330115565354282E-01
  0.000000000000000E+00  0.625000000000000E+00  0.353179756970600E-01
  0.000000000000000E+00  0.675000000000000E+00  0.378276800296894E-01
  0.000000000000000E+00  0.725000000000000E+00  0.404288500068712E-01
  0.000000000000000E+00  0.775000000000000E+00  0.428485027328580E-01
  0.000000000000000E+00  0.825000000000000E+00  0.444090180083273E-01
  0.000000000000000E+00  0.875000000000000E+00  0.434838914190893E-01
  0.000000000000000E+00  0.925000000000000E+00  0.366054471283260E-01
  0.000000000000000E+00  0.975000000000000E+00  0.175589712254234E-01
  0.000000000000000E+00  0.100000000000000E+01  0.000000000000000E+00
  0.750000000000000E-01  0.000000000000000E+00  0.216800280887420E-01
  0.750000000000000E-01  0.750000000000000E-01  0.218245699729547E-01
  0.750000000000000E-01  0.125000000000000E+00  0.220815333226663E-01
  0.750000000000000E-01  0.175000000000000E+00  0.224733780881699E-01
  0.750000000000000E-01  0.225000000000000E+00  0.230098719395257E-01
  0.750000000000000E-01  0.275000000000000E+00  0.237044038269467E-01
  0.750000000000000E-01  0.325000000000000E+00  0.245743391161697E-01
  0.750000000000000E-01  0.375000000000000E+00  0.256414842818862E-01
  0.750000000000000E-01  0.425000000000000E+00  0.269326717453106E-01
  0.750000000000000E-01  0.475000000000000E+00  0.284804680124041E-01
  0.750000000000000E-01  0.525000000000000E+00  0.303239735009355E-01
  0.750000000000000E-01  0.575000000000000E+00  0.325095533270994E-01
  0.750000000000000E-01  0.625000000000000E+00  0.350907914555655E-01
  0.750000000000000E-01  0.675000000000000E+00  0.381243291497767E-01
  0.750000000000000E-01  0.725000000000000E+00  0.416464558056170E-01
  0.750000000000000E-01  0.775000000000000E+00  0.455739197875209E-01
  0.750000000000000E-01  0.825000000000000E+00  0.493732400952191E-01
  0.750000000000000E-01  0.875000000000000E+00  0.512170044264672E-01
  0.750000000000000E-01  0.925000000000000E+00  0.463608117712241E-01
  0.750000000000000E-01  0.975000000000000E+00  0.246352541057805E-01
  0.750000000000000E-01  0.100000000000000E+01  0.000000000000000E+00
  0.125000000000000E+00  0.000000000000000E+00  0.211417056628253E-01
  0.125000000000000E+00  0.750000000000000E-01  0.212728256389097E-01
  0.125000000000000E+00  0.125000000000000E+00  0.215059278186154E-01
  0.125000000000000E+00  0.175000000000000E+00  0.218621733628157E-01
  0.125000000000000E+00  0.225000000000000E+00  0.223517996563299E-01
  0.125000000000000E+00  0.275000000000000E+00  0.229892609414657E-01
  0.125000000000000E+00  0.325000000000000E+00  0.237941159118380E-01
  0.125000000000000E+00  0.375000000000000E+00  0.247923665664744E-01
  0.125000000000000E+00  0.425000000000000E+00  0.260184665535863E-01
  0.125000000000000E+00  0.475000000000000E+00  0.275183351297385E-01
  0.125000000000000E+00  0.525000000000000E+00  0.293538704427196E-01
  0.125000000000000E+00  0.575000000000000E+00  0.316095950144657E-01
  0.125000000000000E+00  0.625000000000000E+00  0.344017547274601E-01
  0.125000000000000E+00  0.675000000000000E+00  0.378870486127263E-01
  0.125000000000000E+00  0.725000000000000E+00  0.422521211210270E-01
  0.125000000000000E+00  0.775000000000000E+00  0.476069687258086E-01
  0.125000000000000E+00  0.825000000000000E+00  0.535636421721400E-01
  0.125000000000000E+00  0.875000000000000E+00  0.580880965764228E-01
  0.125000000000000E+00  0.925000000000000E+00  0.551716949132774E-01
  0.125000000000000E+00  0.975000000000000E+00  0.309446854312593E-01
  0.125000000000000E+00  0.100000000000000E+01  0.000000000000000E+00
  0.175000000000000E+00  0.000000000000000E+00  0.204904704158731E-01
  0.175000000000000E+00  0.750000000000000E-01  0.206044592061363E-01
  0.175000000000000E+00  0.125000000000000E+00  0.208071059443820E-01
  0.175000000000000E+00  0.175000000000000E+00  0.211175096862325E-01
  0.175000000000000E+00  0.225000000000000E+00  0.215458004215842E-01
  0.175000000000000E+00  0.275000000000000E+00  0.221066083290638E-01
  0.175000000000000E+00  0.325000000000000E+00  0.228203436622567E-01
  0.175000000000000E+00  0.375000000000000E+00  0.237151879261939E-01
  0.175000000000000E+00  0.425000000000000E+00  0.248301787944724E-01
  0.175000000000000E+00  0.475000000000000E+00  0.262199927634945E-01
  0.175000000000000E+00  0.525000000000000E+00  0.279623502389557E-01
  0.175000000000000E+00  0.575000000000000E+00  0.301693386246006E-01
  0.175000000000000E+00  0.625000000000000E+00  0.330038420889066E-01
  0.175000000000000E+00  0.675000000000000E+00  0.366986951868971E-01
  0.175000000000000E+00  0.725000000000000E+00  0.415566585198371E-01
  0.175000000000000E+00  0.775000000000000E+00  0.478382049803827E-01
  0.175000000000000E+00  0.825000000000000E+00  0.552700465497941E-01
  0.175000000000000E+00  0.875000000000000E+00  0.616696087984301E-01
  0.175000000000000E+00  0.925000000000000E+00  0.601405268516909E-01
  0.175000000000000E+00  0.975000000000000E+00  0.344746394132341E-01
  0.175000000000000E+00  0.100000000000000E+01  0.000000000000000E+00
  0.225000000000000E+00  0.000000000000000E+00  0.197414649846027E-01
  0.225000000000000E+00  0.750000000000000E-01  0.198347034540998E-01
  0.225000000000000E+00  0.125000000000000E+00  0.200004607332057E-01
  0.225000000000000E+00  0.175000000000000E+00  0.202548884925537E-01
  0.225000000000000E+00  0.225000000000000E+00  0.206071997995243E-01
  0.225000000000000E+00  0.275000000000000E+00  0.210709183569565E-01
  0.225000000000000E+00  0.325000000000000E+00  0.216653099591497E-01
  0.225000000000000E+00  0.375000000000000E+00  0.224176383739814E-01
  0.225000000000000E+00  0.425000000000000E+00  0.233667070606999E-01
  0.225000000000000E+00  0.475000000000000E+00  0.245684233550475E-01
  0.225000000000000E+00  0.525000000000000E+00  0.261045304909806E-01
  0.225000000000000E+00  0.575000000000000E+00  0.280961538177561E-01
  0.225000000000000E+00  0.625000000000000E+00  0.307238295398841E-01
  0.225000000000000E+00  0.675000000000000E+00  0.342519765210602E-01
  0.225000000000000E+00  0.725000000000000E+00  0.390349005907170E-01
  0.225000000000000E+00  0.775000000000000E+00  0.454053415573045E-01
  0.225000000000000E+00  0.825000000000000E+00  0.531610005496483E-01
  0.225000000000000E+00  0.875000000000000E+00  0.601169191224896E-01
  0.225000000000000E+00  0.925000000000000E+00  0.591983652423299E-01
  0.225000000000000E+00  0.975000000000000E+00  0.339660659716901E-01
  0.225000000000000E+00  0.100000000000000E+01  0.000000000000000E+00
  0.275000000000000E+00  0.000000000000000E+00  0.189127827103525E-01
  0.275000000000000E+00  0.750000000000000E-01  0.189820134476496E-01
  0.275000000000000E+00  0.125000000000000E+00  0.191050903139555E-01
  0.275000000000000E+00  0.175000000000000E+00  0.192943261194334E-01
  0.275000000000000E+00  0.225000000000000E+00  0.195571222327025E-01
  0.275000000000000E+00  0.275000000000000E+00  0.199044615998240E-01
  0.275000000000000E+00  0.325000000000000E+00  0.203522038443989E-01
  0.275000000000000E+00  0.375000000000000E+00  0.209231384079668E-01
  0.275000000000000E+00  0.425000000000000E+00  0.216502276366185E-01
  0.275000000000000E+00  0.475000000000000E+00  0.225817330621256E-01
  0.275000000000000E+00  0.525000000000000E+00  0.237893107012002E-01
  0.275000000000000E+00  0.575000000000000E+00  0.253806517114246E-01
  0.275000000000000E+00  0.625000000000000E+00  0.275183098566207E-01
  0.275000000000000E+00  0.675000000000000E+00  0.304430158717878E-01
  0.275000000000000E+00  0.725000000000000E+00  0.344807551037644E-01
  0.275000000000000E+00  0.775000000000000E+00  0.399433188646959E-01
  0.275000000000000E+00  0.825000000000000E+00  0.466617507230400E-01
  0.275000000000000E+00  0.875000000000000E+00  0.526692197485402E-01
  0.275000000000000E+00  0.925000000000000E+00  0.516140453228557E-01
  0.275000000000000E+00  0.975000000000000E+00  0.291567762687214E-01
  0.275000000000000E+00  0.100000000000000E+01  0.000000000000000E+00
  0.325000000000000E+00  0.000000000000000E+00  0.180251188318019E-01
  0.325000000000000E+00  0.750000000000000E-01  0.180677437364970E-01
  0.325000000000000E+00  0.125000000000000E+00  0.181435213448437E-01
  0.325000000000000E+00  0.175000000000000E+00  0.182601623614176E-01
  0.325000000000000E+00  0.225000000000000E+00  0.184224514214398E-01
  0.325000000000000E+00  0.275000000000000E+00  0.186375331769709E-01
  0.325000000000000E+00  0.325000000000000E+00  0.189158026519561E-01
  0.325000000000000E+00  0.375000000000000E+00  0.192723181411189E-01
  0.325000000000000E+00  0.425000000000000E+00  0.197290346375373E-01
  0.325000000000000E+00  0.475000000000000E+00  0.203183359930064E-01
  0.325000000000000E+00  0.525000000000000E+00  0.210886153379314E-01
  0.325000000000000E+00  0.575000000000000E+00  0.221129921400402E-01
  0.325000000000000E+00  0.625000000000000E+00  0.235022888162447E-01
  0.325000000000000E+00  0.675000000000000E+00  0.254209874531541E-01
  0.325000000000000E+00  0.725000000000000E+00  0.280911442311918E-01
  0.325000000000000E+00  0.775000000000000E+00  0.317181673595976E-01
  0.325000000000000E+00  0.825000000000000E+00  0.361442362604076E-01
  0.325000000000000E+00  0.875000000000000E+00  0.398653452132587E-01
  0.325000000000000E+00  0.925000000000000E+00  0.381436907951445E-01
  0.325000000000000E+00  0.975000000000000E+00  0.207681662324116E-01
  0.325000000000000E+00  0.100000000000000E+01  0.000000000000000E+00
  0.375000000000000E+00  0.000000000000000E+00  0.171012137891110E-01
  0.375000000000000E+00  0.750000000000000E-01  0.171155606146894E-01
  0.375000000000000E+00  0.125000000000000E+00  0.171410660823843E-01
  0.375000000000000E+00  0.175000000000000E+00  0.171803274256763E-01
  0.375000000000000E+00  0.225000000000000E+00  0.172349598629896E-01
  0.375000000000000E+00  0.275000000000000E+00  0.173073779224975E-01
  0.375000000000000E+00  0.325000000000000E+00  0.174010957719624E-01
  0.375000000000000E+00  0.375000000000000E+00  0.175211981286744E-01
  0.375000000000000E+00  0.425000000000000E+00  0.176750735740035E-01
  0.375000000000000E+00  0.475000000000000E+00  0.178735537865341E-01
  0.375000000000000E+00  0.525000000000000E+00  0.181326771180873E-01
  0.375000000000000E+00  0.575000000000000E+00  0.184763796105773E-01
  0.375000000000000E+00  0.625000000000000E+00  0.189403659091430E-01
  0.375000000000000E+00  0.675000000000000E+00  0.195763730729546E-01
  0.375000000000000E+00  0.725000000000000E+00  0.204501589794230E-01
  0.375000000000000E+00  0.775000000000000E+00  0.216031541201733E-01
  0.375000000000000E+00  0.825000000000000E+00  0.228827395367440E-01
  0.375000000000000E+00  0.875000000000000E+00  0.234493432956733E-01
  0.375000000000000E+00  0.925000000000000E+00  0.208482110977257E-01
  0.375000000000000E+00  0.975000000000000E+00  0.102901929512980E-01
  0.375000000000000E+00  0.100000000000000E+01  0.000000000000000E+00
  0.425000000000000E+00  0.000000000000000E+00  0.161651121404314E-01
  0.425000000000000E+00  0.750000000000000E-01  0.161506170947669E-01
  0.425000000000000E+00  0.125000000000000E+00  0.161248481246967E-01
  0.425000000000000E+00  0.175000000000000E+00  0.160851148021017E-01
  0.425000000000000E+00  0.225000000000000E+00  0.160296748598795E-01
  0.425000000000000E+00  0.275000000000000E+00  0.159559120008996E-01
  0.425000000000000E+00  0.325000000000000E+00  0.158599877069694E-01
  0.425000000000000E+00  0.375000000000000E+00  0.157362771714128E-01
  0.425000000000000E+00  0.425000000000000E+00  0.155764550837465E-01
  0.425000000000000E+00  0.475000000000000E+00  0.153680072760338E-01
  0.425000000000000E+00  0.525000000000000E+00  0.150918014185853E-01
  0.425000000000000E+00  0.575000000000000E+00  0.147181484235889E-01
  0.425000000000000E+00  0.625000000000000E+00  0.142006245873153E-01
  0.425000000000000E+00  0.675000000000000E+00  0.134673600474911E-01
  0.425000000000000E+00  0.725000000000000E+00  0.124123523960055E-01
  0.425000000000000E+00  0.775000000000000E+00  0.108973265050006E-01
  0.425000000000000E+00  0.825000000000000E+00  0.878274890572696E-02
  0.425000000000000E+00  0.875000000000000E+00  0.599263552513076E-02
  0.425000000000000E+00  0.925000000000000E+00  0.263333346335232E-02
  0.425000000000000E+00  0.975000000000000E+00 -0.376160184581045E-03
  0.425000000000000E+00  0.100000000000000E+01  0.000000000000000E+00
  0.475000000000000E+00  0.000000000000000E+00  0.152412955987431E-01
  0.475000000000000E+00  0.750000000000000E-01  0.151985654925206E-01
  0.475000000000000E+00  0.125000000000000E+00  0.151226008592363E-01
  0.475000000000000E+00  0.175000000000000E+00  0.150056146383086E-01
  0.475000000000000E+00  0.225000000000000E+00  0.148427195673176E-01
  0.475000000000000E+00  0.275000000000000E+00  0.146266170466437E-01
  0.475000000000000E+00  0.325000000000000E+00  0.143466807922436E-01
  0.475000000000000E+00  0.375000000000000E+00  0.139874932819778E-01
  0.475000000000000E+00  0.425000000000000E+00  0.135265122750928E-01
  0.475000000000000E+00  0.475000000000000E+00  0.129303397266350E-01
  0.475000000000000E+00  0.525000000000000E+00  0.121487460780549E-01
  0.475000000000000E+00  0.575000000000000E+00  0.111051692364586E-01
  0.475000000000000E+00  0.625000000000000E+00  0.968215857516220E-02
  0.475000000000000E+00  0.675000000000000E+00  0.770193276772238E-02
  0.475000000000000E+00  0.725000000000000E+00  0.491272207596879E-02
  0.475000000000000E+00  0.775000000000000E+00  0.102784651660375E-02
  0.475000000000000E+00  0.825000000000000E+00 -0.405892926357922E-02
  0.475000000000000E+00  0.875000000000000E+00 -0.969289623263280E-02
  0.475000000000000E+00  0.925000000000000E+00 -0.134027826661860E-01
  0.475000000000000E+00  0.975000000000000E+00 -0.934795275898815E-02
  0.475000000000000E+00  0.100000000000000E+01  0.000000000000000E+00
  0.525000000000000E+00  0.000000000000000E+00  0.143537728941481E-01
  0.525000000000000E+00  0.750000000000000E-01  0.142845150610280E-01
  0.525000000000000E+00  0.125000000000000E+00  0.141613900243701E-01
  0.525000000000000E+00  0.175000000000000E+00  0.139720355792123E-01
  0.525000000000000E+00  0.225000000000000E+00  0.137089848779758E-01
  0.525000000000000E+00  0.275000000000000E+00  0.133611736459244E-01
  0.525000000000000E+00  0.325000000000000E+00  0.129126525510251E-01
  0.525000000000000E+00  0.375000000000000E+00  0.123405494968978E-01
  0.525000000000000E+00  0.425000000000000E+00  0.116118542167769E-01
  0.525000000000000E+00  0.475000000000000E+00  0.106783345944884E-01
  0.525000000000000E+00  0.525000000000000E+00  0.946849064588983E-02
  0.525000000000000E+00  0.575000000000000E+00  0.787491630331579E-02
  0.525000000000000E+00  0.625000000000000E+00  0.573519265004420E-02
  0.525000000000000E+00  0.675000000000000E+00  0.280699521614010E-02
  0.525000000000000E+00  0.725000000000000E+00 -0.124634100166123E-02
  0.525000000000000E+00  0.775000000000000E+00 -0.678784957565230E-02
  0.525000000000000E+00  0.825000000000000E+00 -0.138585943642978E-01
  0.525000000000000E+00  0.875000000000000E+00 -0.212266554624913E-01
  0.525000000000000E+00  0.925000000000000E+00 -0.246905053165471E-01
  0.525000000000000E+00  0.975000000000000E+00 -0.151790934838831E-01
  0.525000000000000E+00  0.100000000000000E+01  0.000000000000000E+00
  0.575000000000000E+00  0.000000000000000E+00  0.135252172312223E-01
  0.575000000000000E+00  0.750000000000000E-01  0.134320525309265E-01
  0.575000000000000E+00  0.125000000000000E+00  0.132664263970673E-01
  0.575000000000000E+00  0.175000000000000E+00  0.130121647910881E-01
  0.575000000000000E+00  0.225000000000000E+00  0.126600213958974E-01
  0.575000000000000E+00  0.275000000000000E+00  0.121964533842362E-01
  0.575000000000000E+00  0.325000000000000E+00  0.116022261077439E-01
  0.575000000000000E+00  0.375000000000000E+00  0.108502317059690E-01
  0.575000000000000E+00  0.425000000000000E+00  0.990209365336500E-02
  0.575000000000000E+00  0.475000000000000E+00  0.870287822412673E-02
  0.575000000000000E+00  0.525000000000000E+00  0.717285981045184E-02
  0.575000000000000E+00  0.575000000000000E+00  0.519481507398043E-02
  0.575000000000000E+00  0.625000000000000E+00  0.259521779659489E-02
  0.575000000000000E+00  0.675000000000000E+00 -0.879286535550837E-03
  0.575000000000000E+00  0.725000000000000E+00 -0.557128757467568E-02
  0.575000000000000E+00  0.775000000000000E+00 -0.118259210063998E-01
  0.575000000000000E+00  0.825000000000000E+00 -0.195797387173698E-01
  0.575000000000000E+00  0.875000000000000E+00 -0.272499744303591E-01
  0.575000000000000E+00  0.925000000000000E+00 -0.298177702181956E-01
  0.575000000000000E+00  0.975000000000000E+00 -0.171845939325028E-01
  0.575000000000000E+00  0.100000000000000E+01  0.000000000000000E+00
  0.625000000000000E+00  0.000000000000000E+00  0.127762324754487E-01
  0.625000000000000E+00  0.750000000000000E-01  0.126624296611584E-01
  0.625000000000000E+00  0.125000000000000E+00  0.124601135468646E-01
  0.625000000000000E+00  0.175000000000000E+00  0.121501816345128E-01
  0.625000000000000E+00  0.225000000000000E+00  0.117224834094741E-01
  0.625000000000000E+00  0.275000000000000E+00  0.111623911333322E-01
  0.625000000000000E+00  0.325000000000000E+00  0.104495644021918E-01
  0.625000000000000E+00  0.375000000000000E+00  0.955605538555163E-02
  0.625000000000000E+00  0.425000000000000E+00  0.844342237865513E-02
  0.625000000000000E+00  0.475000000000000E+00  0.705834033495733E-02
  0.625000000000000E+00  0.525000000000000E+00  0.532594849925031E-02
  0.625000000000000E+00  0.575000000000000E+00  0.313990839526920E-02
  0.625000000000000E+00  0.625000000000000E+00  0.348316491527511E-03
  0.625000000000000E+00  0.675000000000000E+00 -0.326224786337397E-02
  0.625000000000000E+00  0.725000000000000E+00 -0.796568128643253E-02
  0.625000000000000E+00  0.775000000000000E+00 -0.140003341619352E-01
  0.625000000000000E+00  0.825000000000000E+00 -0.211637511982766E-01
  0.625000000000000E+00  0.875000000000000E+00 -0.277585845905109E-01
  0.625000000000000E+00  0.925000000000000E+00 -0.288921756072038E-01
  0.625000000000000E+00  0.975000000000000E+00 -0.155972690734155E-01
  0.625000000000000E+00  0.100000000000000E+01  0.000000000000000E+00
  0.675000000000000E+00  0.000000000000000E+00  0.121248043438972E-01
  0.675000000000000E+00  0.750000000000000E-01  0.119939877231776E-01
  0.675000000000000E+00  0.125000000000000E+00  0.117614248418983E-01
  0.675000000000000E+00  0.175000000000000E+00  0.114059603065990E-01
  0.675000000000000E+00  0.225000000000000E+00  0.109173261918030E-01
  0.675000000000000E+00  0.275000000000000E+00  0.102810425739186E-01
  0.675000000000000E+00  0.325000000000000E+00  0.947755462435011E-02
  0.675000000000000E+00  0.375000000000000E+00  0.848095851073874E-02
  0.675000000000000E+00  0.425000000000000E+00  0.725714280662536E-02
  0.675000000000000E+00  0.475000000000000E+00  0.576109805500374E-02
  0.675000000000000E+00  0.525000000000000E+00  0.393307083561297E-02
  0.675000000000000E+00  0.575000000000000E+00  0.169323729127865E-02
  0.675000000000000E+00  0.625000000000000E+00 -0.106494696816622E-02
  0.675000000000000E+00  0.675000000000000E+00 -0.447955467918972E-02
  0.675000000000000E+00  0.725000000000000E+00 -0.870616024530967E-02
  0.675000000000000E+00  0.775000000000000E+00 -0.138207752649700E-01
  0.675000000000000E+00  0.825000000000000E+00 -0.194717402971100E-01
  0.675000000000000E+00  0.875000000000000E+00 -0.240433977987497E-01
  0.675000000000000E+00  0.925000000000000E+00 -0.234915329490081E-01
  0.675000000000000E+00  0.975000000000000E+00 -0.115091549356572E-01
  0.675000000000000E+00  0.100000000000000E+01  0.000000000000000E+00
  0.725000000000000E+00  0.000000000000000E+00  0.115859585986995E-01
  0.725000000000000E+00  0.750000000000000E-01  0.114418426060544E-01
  0.725000000000000E+00  0.125000000000000E+00  0.111856363969076E-01
  0.725000000000000E+00  0.175000000000000E+00  0.107948919895105E-01
  0.725000000000000E+00  0.225000000000000E+00  0.102597901623211E-01
  0.725000000000000E+00  0.275000000000000E+00  0.956685843731943E-02
  0.725000000000000E+00  0.325000000000000E+00  0.869859754799444E-02
  0.725000000000000E+00  0.375000000000000E+00  0.763300253624421E-02
  0.725000000000000E+00  0.425000000000000E+00  0.634298451390179E-02
  0.725000000000000E+00  0.475000000000000E+00  0.479573018785068E-02
  0.725000000000000E+00  0.525000000000000E+00  0.295212047674724E-02
  0.725000000000000E+00  0.575000000000000E+00  0.766553535486290E-03
  0.725000000000000E+00  0.625000000000000E+00 -0.181179428826582E-02
  0.725000000000000E+00  0.675000000000000E+00 -0.483264274673651E-02
  0.725000000000000E+00  0.725000000000000E+00 -0.831949051861093E-02
  0.725000000000000E+00  0.775000000000000E+00 -0.121800408435636E-01
  0.725000000000000E+00  0.825000000000000E+00 -0.159438399376064E-01
  0.725000000000000E+00  0.875000000000000E+00 -0.182153556490380E-01
  0.725000000000000E+00  0.925000000000000E+00 -0.161482278737907E-01
  0.725000000000000E+00  0.975000000000000E+00 -0.658213562464577E-02
  0.725000000000000E+00  0.100000000000000E+01  0.000000000000000E+00
  0.775000000000000E+00  0.000000000000000E+00  0.111716121726666E-01
  0.775000000000000E+00  0.750000000000000E-01  0.110178066046337E-01
  0.775000000000000E+00  0.125000000000000E+00  0.107443744836863E-01
  0.775000000000000E+00  0.175000000000000E+00  0.103281533952326E-01
  0.775000000000000E+00  0.225000000000000E+00  0.976004321857080E-02
  0.775000000000000E+00  0.275000000000000E+00  0.902794921238282E-02
  0.775000000000000E+00  0.325000000000000E+00  0.811690280102350E-02
  0.775000000000000E+00  0.375000000000000E+00  0.700937289035479E-02
  0.775000000000000E+00  0.425000000000000E+00  0.568593429671126E-02
  0.775000000000000E+00  0.475000000000000E+00  0.412657220372535E-02
  0.775000000000000E+00  0.525000000000000E+00  0.231309503379189E-02
  0.775000000000000E+00  0.575000000000000E+00  0.233472855934711E-03
  0.775000000000000E+00  0.625000000000000E+00 -0.211038329974328E-02
  0.775000000000000E+00  0.675000000000000E+00 -0.468802498441222E-02
  0.775000000000000E+00  0.725000000000000E+00 -0.740966036978545E-02
  0.775000000000000E+00  0.775000000000000E+00 -0.100528929423383E-01
  0.775000000000000E+00  0.825000000000000E+00 -0.120957938436016E-01
  0.775000000000000E+00  0.875000000000000E+00 -0.124499145090046E-01
  0.775000000000000E+00  0.925000000000000E+00 -0.945961424993703E-02
  0.775000000000000E+00  0.975000000000000E+00 -0.254125898545000E-02
  0.775000000000000E+00  0.100000000000000E+01  0.000000000000000E+00
  0.825000000000000E+00  0.000000000000000E+00  0.108905728209196E-01
  0.825000000000000E+00  0.750000000000000E-01  0.107304840693937E-01
  0.825000000000000E+00  0.125000000000000E+00  0.104458818444588E-01
  0.825000000000000E+00  0.175000000000000E+00  0.100132689562611E-01
  0.825000000000000E+00  0.225000000000000E+00  0.942423246990412E-02
  0.825000000000000E+00  0.275000000000000E+00  0.866793185029819E-02
  0.825000000000000E+00  0.325000000000000E+00  0.773161512021970E-02
  0.825000000000000E+00  0.375000000000000E+00  0.660155474837921E-02
  0.825000000000000E+00  0.425000000000000E+00  0.526468601352034E-02
  0.825000000000000E+00  0.475000000000000E+00  0.371139239392488E-02
  0.825000000000000E+00  0.525000000000000E+00  0.194012953166396E-02
  0.825000000000000E+00  0.575000000000000E+00 -0.350500707303661E-04
  0.825000000000000E+00  0.625000000000000E+00 -0.217244440624573E-02
  0.825000000000000E+00  0.675000000000000E+00 -0.438349536191630E-02
  0.825000000000000E+00  0.725000000000000E+00 -0.650159316531412E-02
  0.825000000000000E+00  0.775000000000000E+00 -0.823009387507665E-02
  0.825000000000000E+00  0.825000000000000E+00 -0.906486998534474E-02
  0.825000000000000E+00  0.875000000000000E+00 -0.825327064149059E-02
  0.825000000000000E+00  0.925000000000000E+00 -0.510755577888557E-02
  0.825000000000000E+00  0.975000000000000E+00 -0.495127480626889E-03
  0.825000000000000E+00  0.100000000000000E+01  0.000000000000000E+00
  0.875000000000000E+00  0.000000000000000E+00  0.107486237755610E-01
  0.875000000000000E+00  0.750000000000000E-01  0.105854549584131E-01
  0.875000000000000E+00  0.125000000000000E+00  0.102953770612613E-01
  0.875000000000000E+00  0.175000000000000E+00  0.985477237659416E-02
  0.875000000000000E+00  0.225000000000000E+00  0.925563938876284E-02
  0.875000000000000E+00  0.275000000000000E+00  0.848787356726591E-02
  0.875000000000000E+00  0.325000000000000E+00  0.754000201127014E-02
  0.875000000000000E+00  0.375000000000000E+00  0.640046183631987E-02
  0.875000000000000E+00  0.425000000000000E+00  0.505976503985894E-02
  0.875000000000000E+00  0.475000000000000E+00  0.351407642181228E-02
  0.875000000000000E+00  0.525000000000000E+00  0.177099671506006E-02
  0.875000000000000E+00  0.575000000000000E+00 -0.141291842888814E-03
  0.875000000000000E+00  0.625000000000000E+00 -0.215989870996601E-02
  0.875000000000000E+00  0.675000000000000E+00 -0.416603477475051E-02
  0.875000000000000E+00  0.725000000000000E+00 -0.595486371056352E-02
  0.875000000000000E+00  0.775000000000000E+00 -0.719904296764784E-02
  0.875000000000000E+00  0.825000000000000E+00 -0.743220012916470E-02
  0.875000000000000E+00  0.875000000000000E+00 -0.615459844059757E-02
  0.875000000000000E+00  0.925000000000000E+00 -0.329757353607399E-02
  0.875000000000000E+00  0.975000000000000E+00 -0.248181486804380E-03
  0.875000000000000E+00  0.100000000000000E+01  0.000000000000000E+00
  0.925000000000000E+00  0.000000000000000E+00  0.107308801448912E-01
  0.925000000000000E+00  0.750000000000000E-01  0.105673263195406E-01
  0.925000000000000E+00  0.125000000000000E+00  0.102765639633616E-01
  0.925000000000000E+00  0.175000000000000E+00  0.983496030413579E-02
  0.925000000000000E+00  0.225000000000000E+00  0.923456525362019E-02
  0.925000000000000E+00  0.275000000000000E+00  0.846536628188688E-02
  0.925000000000000E+00  0.325000000000000E+00  0.751605037265144E-02
  0.925000000000000E+00  0.375000000000000E+00  0.637532522231245E-02
  0.925000000000000E+00  0.425000000000000E+00  0.503414991815126E-02
  0.925000000000000E+00  0.475000000000000E+00  0.348941192529820E-02
  0.925000000000000E+00  0.525000000000000E+00  0.174985511298457E-02
  0.925000000000000E+00  0.575000000000000E+00 -0.154572064408620E-03
  0.925000000000000E+00  0.625000000000000E+00 -0.215833049793105E-02
  0.925000000000000E+00  0.675000000000000E+00 -0.413885220135479E-02
  0.925000000000000E+00  0.725000000000000E+00 -0.588652252871970E-02
  0.925000000000000E+00  0.775000000000000E+00 -0.707016160421924E-02
  0.925000000000000E+00  0.825000000000000E+00 -0.722811639714219E-02
  0.925000000000000E+00  0.875000000000000E+00 -0.589226441548594E-02
  0.925000000000000E+00  0.925000000000000E+00 -0.307132575572254E-02
  0.925000000000000E+00  0.975000000000000E+00 -0.217313237576566E-03
  0.925000000000000E+00  0.100000000000000E+01  0.000000000000000E+00
  0.975000000000000E+00  0.000000000000000E+00  0.226945152666663E-01
  0.975000000000000E+00  0.750000000000000E-01  0.229867687124692E-01
  0.975000000000000E+00  0.125000000000000E+00  0.234306561307007E-01
  0.975000000000000E+00  0.175000000000000E+00  0.240341898962650E-01
  0.975000000000000E+00  0.225000000000000E+00  0.248074110273162E-01
  0.975000000000000E+00  0.275000000000000E+00  0.257615314974590E-01
  0.975000000000000E+00  0.325000000000000E+00  0.269074255028876E-01
  0.975000000000000E+00  0.375000000000000E+00  0.282530339510297E-01
  0.975000000000000E+00  0.425000000000000E+00  0.297989846221935E-01
  0.975000000000000E+00  0.475000000000000E+00  0.315313206216274E-01
  0.975000000000000E+00  0.525000000000000E+00  0.334095982323389E-01
  0.975000000000000E+00  0.575000000000000E+00  0.353476507348348E-01
  0.975000000000000E+00  0.625000000000000E+00  0.371827426817091E-01
  0.975000000000000E+00  0.675000000000000E+00  0.386257077164511E-01
  0.975000000000000E+00  0.725000000000000E+00  0.391779533705641E-01
  0.975000000000000E+00  0.775000000000000E+00  0.379941799851377E-01
  0.975000000000000E+00  0.825000000000000E+00  0.337023277388073E-01
  0.975000000000000E+00  0.875000000000000E+00  0.244027011881939E-01
  0.975000000000000E+00  0.925000000000000E+00  0.873745422067577E-02
  0.975000000000000E+00  0.975000000000000E+00  0.000000000000000E+00
  0.975000000000000E+00  0.100000000000000E+01  0.000000000000000E+00
  0.100000000000000E+01  0.000000000000000E+00  0.225336844160597E-01
  0.100000000000000E+01  0.750000000000000E-01  0.228195181558803E-01
  0.100000000000000E+01  0.125000000000000E+00  0.232539674261408E-01
  0.100000000000000E+01  0.175000000000000E+00  0.238454145572507E-01
  0.100000000000000E+01  0.225000000000000E+00  0.246045941343047E-01
  0.100000000000000E+01  0.275000000000000E+00  0.255439761283994E-01
  0.100000000000000E+01  0.325000000000000E+00  0.266766483345662E-01