 VARIABLES =  $x$  (b)
 ZONE I=         121 ,DATAPACKING=POINT
 -0.100000000000000E+01 -0.100000000000000E+01  0.206115362243856E-08
 -0.100000000000000E+01 -0.929908211328273E+00  0.000000000000000E+00
 -0.100000000000000E+01 -0.738999765427872E+00  0.000000000000000E+00
 -0.100000000000000E+01 -0.481592278663059E+00  0.000000000000000E+00
 -0.100000000000000E+01 -0.238006831529782E+00  0.000000000000000E+00
 -0.100000000000000E+01 -0.108537242711746E-14  0.000000000000000E+00
 -0.100000000000000E+01  0.238006831529780E+00  0.000000000000000E+00
 -0.100000000000000E+01  0.481592278663057E+00  0.000000000000000E+00
 -0.100000000000000E+01  0.738999765427869E+00  0.000000000000000E+00
 -0.100000000000000E+01  0.929908211328272E+00  0.000000000000000E+00
 -0.100000000000000E+01  0.100000000000000E+01  0.206115362243856E-08
 -0.929908211328273E+00 -0.100000000000000E+01  0.000000000000000E+00
 -0.929908211328273E+00 -0.929908211328273E+00  0.702261657797397E-02
 -0.929908211328273E+00 -0.738999765427872E+00  0.263560018526686E-01
 -0.929908211328273E+00 -0.481592278663059E+00  0.429150295162014E-01
 -0.929908211328273E+00 -0.238006831529782E+00  0.301247297348331E-01
 -0.929908211328273E+00 -0.108537242711746E-14  0.723575324096631E-02
 -0.929908211328273E+00  0.238006831529780E+00  0.301247297348327E-01
 -0.929908211328273E+00  0.481592278663057E+00  0.429150295162015E-01
 -0.929908211328273E+00  0.738999765427869E+00  0.263560018526689E-01
 -0.929908211328273E+00  0.929908211328272E+00  0.702261657797411E-02
 -0.929908211328273E+00  0.100000000000000E+01  0.000000000000000E+00
 -0.738999765427872E+00 -0.100000000000000E+01  0.000000000000000E+00
 -0.738999765427872E+00 -0.929908211328273E+00  0.263560018526686E-01
 -0.738999765427872E+00 -0.738999765427872E+00  0.989205418583072E-01
 -0.738999765427872E+00 -0.481592278663059E+00  0.161940160737919E+00
 -0.738999765427872E+00 -0.238006831529782E+00  0.117951263930817E+00
 -0.738999765427872E+00 -0.108537242711746E-14  0.356808905623683E-01
 -0.738999765427872E+00  0.238006831529780E+00  0.117951263930816E+00
 -0.738999765427872E+00  0.481592278663057E+00  0.161940160737920E+00
 -0.738999765427872E+00  0.738999765427869E+00  0.989205418583085E-01
 -0.738999765427872E+00  0.929908211328272E+00  0.263560018526692E-01
 -0.738999765427872E+00  0.100000000000000E+01  0.000000000000000E+00
 -0.481592278663059E+00 -0.100000000000000E+01  0.000000000000000E+00
 -0.481592278663059E+00 -0.929908211328273E+00  0.429150295162014E-01
 -0.481592278663059E+00 -0.738999765427872E+00  0.161940160737919E+00
 -0.481592278663059E+00 -0.481592278663059E+00  0.263114061827763E+00
 -0.481592278663059E+00 -0.238006831529782E+00  0.188052313377960E+00
 -0.481592278663059E+00 -0.108537242711746E-14  0.467029233457336E-01
 -0.481592278663059E+00  0.238006831529780E+00  0.188052313377958E+00
 -0.481592278663059E+00  0.481592278663057E+00  0.263114061827764E+00
 -0.481592278663059E+00  0.738999765427869E+00  0.161940160737921E+00
 -0.481592278663059E+00  0.929908211328272E+00  0.429150295162023E-01
 -0.481592278663059E+00  0.100000000000000E+01  0.000000000000000E+00
 -0.238006831529782E+00 -0.100000000000000E+01  0.000000000000000E+00
 -0.238006831529782E+00 -0.929908211328273E+00  0.301247297348331E-01
 -0.238006831529782E+00 -0.738999765427872E+00  0.117951263930817E+00
 -0.238006831529782E+00 -0.481592278663059E+00  0.188052313377960E+00
 -0.238006831529782E+00 -0.238006831529782E+00  0.141073340315469E+00
 -0.238006831529782E+00 -0.108537242711746E-14  0.285164600356335E-01
 -0.238006831529782E+00  0.238006831529780E+00  0.141073340315467E+00
 -0.238006831529782E+00  0.481592278663057E+00  0.188052313377960E+00
 -0.238006831529782E+00  0.738999765427869E+00  0.117951263930819E+00
 -0.238006831529782E+00  0.929908211328272E+00  0.301247297348336E-01
 -0.238006831529782E+00  0.100000000000000E+01  0.000000000000000E+00
 -0.108537242711746E-14 -0.100000000000000E+01  0.000000000000000E+00
 -0.108537242711746E-14 -0.929908211328273E+00  0.723575324096631E-02
 -0.108537242711746E-14 -0.738999765427872E+00  0.356808905623683E-01
 -0.108537242711746E-14 -0.481592278663059E+00  0.467029233457336E-01
 -0.108537242711746E-14 -0.238006831529782E+00  0.285164600356335E-01
 -0.108537242711746E-14 -0.108537242711746E-14 -0.358992302748849E-01
 -0.108537242711746E-14  0.238006831529780E+00  0.285164600356328E-01
 -0.108537242711746E-14  0.481592278663057E+00  0.467029233457334E-01
 -0.108537242711746E-14  0.738999765427869E+00  0.356808905623683E-01
 -0.108537242711746E-14  0.929908211328272E+00  0.723575324096611E-02
 -0.108537242711746E-14  0.100000000000000E+01  0.000000000000000E+00
  0.238006831529780E+00 -0.100000000000000E+01  0.000000000000000E+00
  0.238006831529780E+00 -0.929908211328273E+00  0.301247297348327E-01
  0.238006831529780E+00 -0.738999765427872E+00  0.117951263930816E+00
  0.238006831529780E+00 -0.481592278663059E+00  0.188052313377958E+00
  0.238006831529780E+00 -0.238006831529782E+00  0.141073340315467E+00
  0.238006831529780E+00 -0.108537242711746E-14  0.285164600356328E-01
  0.238006831529780E+00  0.238006831529780E+00  0.141073340315466E+00
  0.238006831529780E+00  0.481592278663057E+00  0.188052313377958E+00
  0.238006831529780E+00  0.738999765427869E+00  0.117951263930817E+00
  0.238006831529780E+00  0.929908211328272E+00  0.301247297348332E-01
  0.238006831529780E+00  0.100000000000000E+01  0.000000000000000E+00
  0.481592278663057E+00 -0.100000000000000E+01  0.000000000000000E+00
  0.481592278663057E+00 -0.929908211328273E+00  0.429150295162015E-01
  0.481592278663057E+00 -0.738999765427872E+00  0.161940160737920E+00
  0.481592278663057E+00 -0.481592278663059E+00  0.263114061827764E+00
  0.481592278663057E+00 -0.238006831529782E+00  0.188052313377960E+00
  0.481592278663057E+00 -0.108537242711746E-14  0.467029233457334E-01
  0.481592278663057E+00  0.238006831529780E+00  0.188052313377958E+00
  0.481592278663057E+00  0.481592278663057E+00  0.263114061827765E+00
  0.481592278663057E+00  0.738999765427869E+00  0.161940160737922E+00
  0.481592278663057E+00  0.929908211328272E+00  0.429150295162025E-01
  0.481592278663057E+00  0.100000000000000E+01  0.000000000000000E+00
  0.738999765427869E+00 -0.100000000000000E+01  0.000000000000000E+00
  0.738999765427869E+00 -0.929908211328273E+00  0.263560018526689E-01
  0.738999765427869E+00 -0.738999765427872E+00  0.989205418583085E-01
  0.738999765427869E+00 -0.481592278663059E+00  0.161940160737921E+00
  0.738999765427869E+00 -0.238006831529782E+00  0.117951263930819E+00
  0.738999765427869E+00 -0.108537242711746E-14  0.356808905623683E-01
  0.738999765427869E+00  0.238006831529780E+00  0.117951263930817E+00
  0.738999765427869E+00  0.481592278663057E+00  0.161940160737922E+00
  0.738999765427869E+00  0.738999765427869E+00  0.989205418583098E-01
  0.738999765427869E+00  0.929908211328272E+00  0.263560018526696E-01
  0.738999765427869E+00  0.100000000000000E+01  0.000000000000000E+00
  0.929908211328272E+00 -0.100000000000000E+01  0.000000000000000E+00
  0.929908211328272E+00 -0.929908211328273E+00  0.702261657797411E-02
  0.929908211328272E+00 -0.738999765427872E+00  0.263560018526692E-01
  0.929908211328272E+00 -0.481592278663059E+00  0.429150295162023E-01
  0.929908211328272E+00 -0.238006831529782E+00  0.301247297348336E-01
  0.929908211328272E+00 -0.108537242711746E-14  0.723575324096611E-02
  0.929908211328272E+00  0.238006831529780E+00  0.301247297348332E-01
  0.929908211328272E+00  0.481592278663057E+00  0.429150295162025E-01
  0.929908211328272E+00  0.738999765427869E+00  0.263560018526696E-01
  0.929908211328272E+00  0.929908211328272E+00  0.702261657797429E-02
  0.929908211328272E+00  0.100000000000000E+01  0.000000000000000E+00
  0.100000000000000E+01 -0.100000000000000E+01  0.206115362243856E-08
  0.100000000000000E+01 -0.929908211328273E+00  0.000000000000000E+00
  0.100000000000000E+01 -0.738999765427872E+00  0.000000000000000E+00
  0.100000000000000E+01 -0.481592278663059E+00  0.000000000000000E+00
  0.100000000000000E+01 -0.238006831529782E+00  0.000000000000000E+00
  0.100000000000000E+01 -0.108537242711746E-14  0.000000000000000E+00
  0.100000000000000E+01  0.238006831529780E+00  0.000000000000000E+00
  0.100000000000000E+01  0.481592278663057E+00  0.000000000000000E+00
  0.100000000000000E+01  0.738999765427869E+00  0.000000000000000E+00
  0.100000000000000E+01  0.929908211328272E+00  0.000000000000000E+00
  0.100000000000000E+01  0.100000000000000E+01  0.206115362243856E-08
