 VARIABLES =  $x$  (c)
 ZONE I=         121 ,DATAPACKING=POINT
 -0.100000000000000E+01 -0.100000000000000E+01  0.206115362243856E-08
 -0.100000000000000E+01 -0.929908211328273E+00  0.000000000000000E+00
 -0.100000000000000E+01 -0.738999765427872E+00  0.000000000000000E+00
 -0.100000000000000E+01 -0.481592278663059E+00  0.000000000000000E+00
 -0.100000000000000E+01 -0.238006831529782E+00  0.000000000000000E+00
 -0.100000000000000E+01 -0.108537242711746E-14  0.000000000000000E+00
 -0.100000000000000E+01  0.238006831529780E+00  0.000000000000000E+00
 -0.100000000000000E+01  0.481592278663057E+00  0.000000000000000E+00
 -0.100000000000000E+01  0.738999765427869E+00  0.000000000000000E+00
 -0.100000000000000E+01  0.929908211328272E+00  0.000000000000000E+00
 -0.100000000000000E+01  0.100000000000000E+01  0.206115362243856E-08
 -0.929908211328273E+00 -0.100000000000000E+01  0.000000000000000E+00
 -0.929908211328273E+00 -0.929908211328273E+00  0.320051952976979E-03
 -0.929908211328273E+00 -0.738999765427872E+00  0.954777891806068E-03
 -0.929908211328273E+00 -0.481592278663059E+00  0.301589628007809E-02
 -0.929908211328273E+00 -0.238006831529782E+00  0.972053361571683E-02
 -0.929908211328273E+00 -0.108537242711746E-14  0.161397276217982E-01
 -0.929908211328273E+00  0.238006831529780E+00  0.972053361571693E-02
 -0.929908211328273E+00  0.481592278663057E+00  0.301589628007818E-02
 -0.929908211328273E+00  0.738999765427869E+00  0.954777891806132E-03
 -0.929908211328273E+00  0.929908211328272E+00  0.320051952976956E-03
 -0.929908211328273E+00  0.100000000000000E+01  0.000000000000000E+00
 -0.738999765427872E+00 -0.100000000000000E+01  0.000000000000000E+00
 -0.738999765427872E+00 -0.929908211328273E+00  0.954777891806068E-03
 -0.738999765427872E+00 -0.738999765427872E+00  0.277149070586708E-02
 -0.738999765427872E+00 -0.481592278663059E+00  0.105596622537031E-01
 -0.738999765427872E+00 -0.238006831529782E+00  0.390839764700656E-01
 -0.738999765427872E+00 -0.108537242711746E-14  0.661325927849344E-01
 -0.738999765427872E+00  0.238006831529780E+00  0.390839764700662E-01
 -0.738999765427872E+00  0.481592278663057E+00  0.105596622537035E-01
 -0.738999765427872E+00  0.738999765427869E+00  0.277149070586744E-02
 -0.738999765427872E+00  0.929908211328272E+00  0.954777891806053E-03
 -0.738999765427872E+00  0.100000000000000E+01  0.000000000000000E+00
 -0.481592278663059E+00 -0.100000000000000E+01  0.000000000000000E+00
 -0.481592278663059E+00 -0.929908211328273E+00  0.301589628007809E-02
 -0.481592278663059E+00 -0.738999765427872E+00  0.105596622537031E-01
 -0.481592278663059E+00 -0.481592278663059E+00  0.192024182153006E-01
 -0.481592278663059E+00 -0.238006831529782E+00  0.390464282008797E-01
 -0.481592278663059E+00 -0.108537242711746E-14  0.511360435706013E-01
 -0.481592278663059E+00  0.238006831529780E+00  0.390464282008798E-01
 -0.481592278663059E+00  0.481592278663057E+00  0.192024182153009E-01
 -0.481592278663059E+00  0.738999765427869E+00  0.105596622537033E-01
 -0.481592278663059E+00  0.929908211328272E+00  0.301589628007812E-02
 -0.481592278663059E+00  0.100000000000000E+01  0.000000000000000E+00
 -0.238006831529782E+00 -0.100000000000000E+01  0.000000000000000E+00
 -0.238006831529782E+00 -0.929908211328273E+00  0.972053361571683E-02
 -0.238006831529782E+00 -0.738999765427872E+00  0.390839764700656E-01
 -0.238006831529782E+00 -0.481592278663059E+00  0.390464282008797E-01
 -0.238006831529782E+00 -0.238006831529782E+00 -0.371468992836626E-01
 -0.238006831529782E+00 -0.108537242711746E-14 -0.138409774374814E+00
 -0.238006831529782E+00  0.238006831529780E+00 -0.371468992836635E-01
 -0.238006831529782E+00  0.481592278663057E+00  0.390464282008791E-01
 -0.238006831529782E+00  0.738999765427869E+00  0.390839764700661E-01
 -0.238006831529782E+00  0.929908211328272E+00  0.972053361571720E-02
 -0.238006831529782E+00  0.100000000000000E+01  0.000000000000000E+00
 -0.108537242711746E-14 -0.100000000000000E+01  0.000000000000000E+00
 -0.108537242711746E-14 -0.929908211328273E+00  0.161397276217982E-01
 -0.108537242711746E-14 -0.738999765427872E+00  0.661325927849344E-01
 -0.108537242711746E-14 -0.481592278663059E+00  0.511360435706013E-01
 -0.108537242711746E-14 -0.238006831529782E+00 -0.138409774374814E+00
 -0.108537242711746E-14 -0.108537242711746E-14 -0.358734715018272E+00
 -0.108537242711746E-14  0.238006831529780E+00 -0.138409774374817E+00
 -0.108537242711746E-14  0.481592278663057E+00  0.511360435706003E-01
 -0.108537242711746E-14  0.738999765427869E+00  0.661325927849349E-01
 -0.108537242711746E-14  0.929908211328272E+00  0.161397276217987E-01
 -0.108537242711746E-14  0.100000000000000E+01  0.000000000000000E+00
  0.238006831529780E+00 -0.100000000000000E+01  0.000000000000000E+00
  0.238006831529780E+00 -0.929908211328273E+00  0.972053361571693E-02
  0.238006831529780E+00 -0.738999765427872E+00  0.390839764700662E-01
  0.238006831529780E+00 -0.481592278663059E+00  0.390464282008798E-01
  0.238006831529780E+00 -0.238006831529782E+00 -0.371468992836635E-01
  0.238006831529780E+00 -0.108537242711746E-14 -0.138409774374817E+00
  0.238006831529780E+00  0.238006831529780E+00 -0.371468992836644E-01
  0.238006831529780E+00  0.481592278663057E+00  0.390464282008795E-01
  0.238006831529780E+00  0.738999765427869E+00  0.390839764700664E-01
  0.238006831529780E+00  0.929908211328272E+00  0.972053361571731E-02
  0.238006831529780E+00  0.100000000000000E+01  0.000000000000000E+00
  0.481592278663057E+00 -0.100000000000000E+01  0.000000000000000E+00
  0.481592278663057E+00 -0.929908211328273E+00  0.301589628007818E-02
  0.481592278663057E+00 -0.738999765427872E+00  0.105596622537035E-01
  0.481592278663057E+00 -0.481592278663059E+00  0.192024182153009E-01
  0.481592278663057E+00 -0.238006831529782E+00  0.390464282008791E-01
  0.481592278663057E+00 -0.108537242711746E-14  0.511360435706003E-01
  0.481592278663057E+00  0.238006831529780E+00  0.390464282008795E-01
  0.481592278663057E+00  0.481592278663057E+00  0.192024182153009E-01
  0.481592278663057E+00  0.738999765427869E+00  0.105596622537035E-01
  0.481592278663057E+00  0.929908211328272E+00  0.301589628007821E-02
  0.481592278663057E+00  0.100000000000000E+01  0.000000000000000E+00
  0.738999765427869E+00 -0.100000000000000E+01  0.000000000000000E+00
  0.738999765427869E+00 -0.929908211328273E+00  0.954777891806132E-03
  0.738999765427869E+00 -0.738999765427872E+00  0.277149070586744E-02
  0.738999765427869E+00 -0.481592278663059E+00  0.105596622537033E-01
  0.738999765427869E+00 -0.238006831529782E+00  0.390839764700661E-01
  0.738999765427869E+00 -0.108537242711746E-14  0.661325927849349E-01
  0.738999765427869E+00  0.238006831529780E+00  0.390839764700664E-01
  0.738999765427869E+00  0.481592278663057E+00  0.105596622537035E-01
  0.738999765427869E+00  0.738999765427869E+00  0.277149070586750E-02
  0.738999765427869E+00  0.929908211328272E+00  0.954777891806078E-03
  0.738999765427869E+00  0.100000000000000E+01  0.000000000000000E+00
  0.929908211328272E+00 -0.100000000000000E+01  0.000000000000000E+00
  0.929908211328272E+00 -0.929908211328273E+00  0.320051952976956E-03
  0.929908211328272E+00 -0.738999765427872E+00  0.954777891806053E-03
  0.929908211328272E+00 -0.481592278663059E+00  0.301589628007812E-02
  0.929908211328272E+00 -0.238006831529782E+00  0.972053361571720E-02
  0.929908211328272E+00 -0.108537242711746E-14  0.161397276217987E-01
  0.929908211328272E+00  0.238006831529780E+00  0.972053361571731E-02
  0.929908211328272E+00  0.481592278663057E+00  0.301589628007821E-02
  0.929908211328272E+00  0.738999765427869E+00  0.954777891806078E-03
  0.929908211328272E+00  0.929908211328272E+00  0.320051952976974E-03
  0.929908211328272E+00  0.100000000000000E+01  0.000000000000000E+00
  0.100000000000000E+01 -0.100000000000000E+01  0.206115362243856E-08
  0.100000000000000E+01 -0.929908211328273E+00  0.000000000000000E+00
  0.100000000000000E+01 -0.738999765427872E+00  0.000000000000000E+00
  0.100000000000000E+01 -0.481592278663059E+00  0.000000000000000E+00
  0.100000000000000E+01 -0.238006831529782E+00  0.000000000000000E+00
  0.100000000000000E+01 -0.108537242711746E-14  0.000000000000000E+00
  0.100000000000000E+01  0.238006831529780E+00  0.000000000000000E+00
  0.100000000000000E+01  0.481592278663057E+00  0.000000000000000E+00
  0.100000000000000E+01  0.738999765427869E+00  0.000000000000000E+00
  0.100000000000000E+01  0.929908211328272E+00  0.000000000000000E+00
  0.100000000000000E+01  0.100000000000000E+01  0.206115362243856E-08
