 VARIABLES =  $x$  (a)
 ZONE I=         121 ,DATAPACKING=POINT
 -0.100000000000000E+01 -0.100000000000000E+01  0.206115362243856E-08
 -0.100000000000000E+01 -0.929908211328273E+00  0.000000000000000E+00
 -0.100000000000000E+01 -0.738999765427872E+00  0.000000000000000E+00
 -0.100000000000000E+01 -0.481592278663059E+00  0.000000000000000E+00
 -0.100000000000000E+01 -0.238006831529782E+00  0.000000000000000E+00
 -0.100000000000000E+01 -0.109925021492528E-14  0.000000000000000E+00
 -0.100000000000000E+01  0.238006831529780E+00  0.000000000000000E+00
 -0.100000000000000E+01  0.481592278663057E+00  0.000000000000000E+00
 -0.100000000000000E+01  0.738999765427869E+00  0.000000000000000E+00
 -0.100000000000000E+01  0.929908211328272E+00  0.000000000000000E+00
 -0.100000000000000E+01  0.100000000000000E+01  0.206115362243856E-08
 -0.929908211328273E+00 -0.100000000000000E+01  0.000000000000000E+00
 -0.929908211328273E+00 -0.929908211328273E+00  0.308359188531512E-07
 -0.929908211328273E+00 -0.738999765427872E+00  0.746030503639091E-06
 -0.929908211328273E+00 -0.481592278663059E+00  0.172688882306532E-04
 -0.929908211328273E+00 -0.238006831529782E+00  0.996580896960707E-04
 -0.929908211328273E+00 -0.109925021492528E-14  0.175601591260305E-03
 -0.929908211328273E+00  0.238006831529780E+00  0.996580896960716E-04
 -0.929908211328273E+00  0.481592278663057E+00  0.172688882306535E-04
 -0.929908211328273E+00  0.738999765427869E+00  0.746030503639118E-06
 -0.929908211328273E+00  0.929908211328272E+00  0.308359188531515E-07
 -0.929908211328273E+00  0.100000000000000E+01  0.000000000000000E+00
 -0.738999765427872E+00 -0.100000000000000E+01  0.000000000000000E+00
 -0.738999765427872E+00 -0.929908211328273E+00  0.746030503639091E-06
 -0.738999765427872E+00 -0.738999765427872E+00  0.180491301397727E-04
 -0.738999765427872E+00 -0.481592278663059E+00  0.417795799935596E-03
 -0.738999765427872E+00 -0.238006831529782E+00  0.241108349006022E-02
 -0.738999765427872E+00 -0.109925021492528E-14  0.424842678408993E-02
 -0.738999765427872E+00  0.238006831529780E+00  0.241108349006024E-02
 -0.738999765427872E+00  0.481592278663057E+00  0.417795799935603E-03
 -0.738999765427872E+00  0.738999765427869E+00  0.180491301397733E-04
 -0.738999765427872E+00  0.929908211328272E+00  0.746030503639099E-06
 -0.738999765427872E+00  0.100000000000000E+01  0.000000000000000E+00
 -0.481592278663059E+00 -0.100000000000000E+01  0.000000000000000E+00
 -0.481592278663059E+00 -0.929908211328273E+00  0.172688882306532E-04
 -0.481592278663059E+00 -0.738999765427872E+00  0.417795799935596E-03
 -0.481592278663059E+00 -0.481592278663059E+00  0.967101068539486E-02
 -0.481592278663059E+00 -0.238006831529782E+00  0.558110306502506E-01
 -0.481592278663059E+00 -0.109925021492528E-14  0.983412969478991E-01
 -0.481592278663059E+00  0.238006831529780E+00  0.558110306502511E-01
 -0.481592278663059E+00  0.481592278663057E+00  0.967101068539504E-02
 -0.481592278663059E+00  0.738999765427869E+00  0.417795799935611E-03
 -0.481592278663059E+00  0.929908211328272E+00  0.172688882306534E-04
 -0.481592278663059E+00  0.100000000000000E+01  0.000000000000000E+00
 -0.238006831529782E+00 -0.100000000000000E+01  0.000000000000000E+00
 -0.238006831529782E+00 -0.929908211328273E+00  0.996580896960707E-04
 -0.238006831529782E+00 -0.738999765427872E+00  0.241108349006022E-02
 -0.238006831529782E+00 -0.481592278663059E+00  0.558110306502506E-01
 -0.238006831529782E+00 -0.238006831529782E+00  0.322083310997400E+00
 -0.238006831529782E+00 -0.109925021492528E-14  0.567523841787638E+00
 -0.238006831529782E+00  0.238006831529780E+00  0.322083310997403E+00
 -0.238006831529782E+00  0.481592278663057E+00  0.558110306502516E-01
 -0.238006831529782E+00  0.738999765427869E+00  0.241108349006030E-02
 -0.238006831529782E+00  0.929908211328272E+00  0.996580896960718E-04
 -0.238006831529782E+00  0.100000000000000E+01  0.000000000000000E+00
 -0.109925021492528E-14 -0.100000000000000E+01  0.000000000000000E+00
 -0.109925021492528E-14 -0.929908211328273E+00  0.175601591260305E-03
 -0.109925021492528E-14 -0.738999765427872E+00  0.424842678408993E-02
 -0.109925021492528E-14 -0.481592278663059E+00  0.983412969478991E-01
 -0.109925021492528E-14 -0.238006831529782E+00  0.567523841787638E+00
 -0.109925021492528E-14 -0.109925021492528E-14  0.100000000000000E+01
 -0.109925021492528E-14  0.238006831529780E+00  0.567523841787643E+00
 -0.109925021492528E-14  0.481592278663057E+00  0.983412969479008E-01
 -0.109925021492528E-14  0.738999765427869E+00  0.424842678409008E-02
 -0.109925021492528E-14  0.929908211328272E+00  0.175601591260307E-03
 -0.109925021492528E-14  0.100000000000000E+01  0.000000000000000E+00
  0.238006831529780E+00 -0.100000000000000E+01  0.000000000000000E+00
  0.238006831529780E+00 -0.929908211328273E+00  0.996580896960716E-04
  0.238006831529780E+00 -0.738999765427872E+00  0.241108349006024E-02
  0.238006831529780E+00 -0.481592278663059E+00  0.558110306502511E-01
  0.238006831529780E+00 -0.238006831529782E+00  0.322083310997403E+00
  0.238006831529780E+00 -0.109925021492528E-14  0.567523841787643E+00
  0.238006831529780E+00  0.238006831529780E+00  0.322083310997406E+00
  0.238006831529780E+00  0.481592278663057E+00  0.558110306502521E-01
  0.238006831529780E+00  0.738999765427869E+00  0.241108349006033E-02
  0.238006831529780E+00  0.929908211328272E+00  0.996580896960727E-04
  0.238006831529780E+00  0.100000000000000E+01  0.000000000000000E+00
  0.481592278663057E+00 -0.100000000000000E+01  0.000000000000000E+00
  0.481592278663057E+00 -0.929908211328273E+00  0.172688882306535E-04
  0.481592278663057E+00 -0.738999765427872E+00  0.417795799935603E-03
  0.481592278663057E+00 -0.481592278663059E+00  0.967101068539504E-02
  0.481592278663057E+00 -0.238006831529782E+00  0.558110306502516E-01
  0.481592278663057E+00 -0.109925021492528E-14  0.983412969479008E-01
  0.481592278663057E+00  0.238006831529780E+00  0.558110306502521E-01
  0.481592278663057E+00  0.481592278663057E+00  0.967101068539521E-02
  0.481592278663057E+00  0.738999765427869E+00  0.417795799935618E-03
  0.481592278663057E+00  0.929908211328272E+00  0.172688882306537E-04
  0.481592278663057E+00  0.100000000000000E+01  0.000000000000000E+00
  0.738999765427869E+00 -0.100000000000000E+01  0.000000000000000E+00
  0.738999765427869E+00 -0.929908211328273E+00  0.746030503639118E-06
  0.738999765427869E+00 -0.738999765427872E+00  0.180491301397733E-04
  0.738999765427869E+00 -0.481592278663059E+00  0.417795799935611E-03
  0.738999765427869E+00 -0.238006831529782E+00  0.241108349006030E-02
  0.738999765427869E+00 -0.109925021492528E-14  0.424842678409008E-02
  0.738999765427869E+00  0.238006831529780E+00  0.241108349006033E-02
  0.738999765427869E+00  0.481592278663057E+00  0.417795799935618E-03
  0.738999765427869E+00  0.738999765427869E+00  0.180491301397740E-04
  0.738999765427869E+00  0.929908211328272E+00  0.746030503639126E-06
  0.738999765427869E+00  0.100000000000000E+01  0.000000000000000E+00
  0.929908211328272E+00 -0.100000000000000E+01  0.000000000000000E+00
  0.929908211328272E+00 -0.929908211328273E+00  0.308359188531515E-07
  0.929908211328272E+00 -0.738999765427872E+00  0.746030503639099E-06
  0.929908211328272E+00 -0.481592278663059E+00  0.172688882306534E-04
  0.929908211328272E+00 -0.238006831529782E+00  0.996580896960718E-04
  0.929908211328272E+00 -0.109925021492528E-14  0.175601591260307E-03
  0.929908211328272E+00  0.238006831529780E+00  0.996580896960727E-04
  0.929908211328272E+00  0.481592278663057E+00  0.172688882306537E-04
  0.929908211328272E+00  0.738999765427869E+00  0.746030503639126E-06
  0.929908211328272E+00  0.929908211328272E+00  0.308359188531518E-07
  0.929908211328272E+00  0.100000000000000E+01  0.000000000000000E+00
  0.100000000000000E+01 -0.100000000000000E+01  0.206115362243856E-08
  0.100000000000000E+01 -0.929908211328273E+00  0.000000000000000E+00
  0.100000000000000E+01 -0.738999765427872E+00  0.000000000000000E+00
  0.100000000000000E+01 -0.481592278663059E+00  0.000000000000000E+00
  0.100000000000000E+01 -0.238006831529782E+00  0.000000000000000E+00
  0.100000000000000E+01 -0.109925021492528E-14  0.000000000000000E+00
  0.100000000000000E+01  0.238006831529780E+00  0.000000000000000E+00
  0.100000000000000E+01  0.481592278663057E+00  0.000000000000000E+00
  0.100000000000000E+01  0.738999765427869E+00  0.000000000000000E+00
  0.100000000000000E+01  0.929908211328272E+00  0.000000000000000E+00
  0.100000000000000E+01  0.100000000000000E+01  0.206115362243856E-08
