 VARIABLES =  $x$  (c)
 ZONE I=         121 ,DATAPACKING=POINT
 -0.100000000000000E+01 -0.100000000000000E+01  0.206115362243856E-08
 -0.100000000000000E+01 -0.929908211328273E+00  0.000000000000000E+00
 -0.100000000000000E+01 -0.738999765427872E+00  0.000000000000000E+00
 -0.100000000000000E+01 -0.481592278663059E+00  0.000000000000000E+00
 -0.100000000000000E+01 -0.238006831529782E+00  0.000000000000000E+00
 -0.100000000000000E+01 -0.109925021492528E-14  0.000000000000000E+00
 -0.100000000000000E+01  0.238006831529780E+00  0.000000000000000E+00
 -0.100000000000000E+01  0.481592278663057E+00  0.000000000000000E+00
 -0.100000000000000E+01  0.738999765427869E+00  0.000000000000000E+00
 -0.100000000000000E+01  0.929908211328272E+00  0.000000000000000E+00
 -0.100000000000000E+01  0.100000000000000E+01  0.206115362243856E-08
 -0.929908211328273E+00 -0.100000000000000E+01  0.000000000000000E+00
 -0.929908211328273E+00 -0.929908211328273E+00  0.320051952977000E-03
 -0.929908211328273E+00 -0.738999765427872E+00  0.954777891806120E-03
 -0.929908211328273E+00 -0.481592278663059E+00  0.301589628007808E-02
 -0.929908211328273E+00 -0.238006831529782E+00  0.972053361571689E-02
 -0.929908211328273E+00 -0.109925021492528E-14  0.161397276217983E-01
 -0.929908211328273E+00  0.238006831529780E+00  0.972053361571696E-02
 -0.929908211328273E+00  0.481592278663057E+00  0.301589628007813E-02
 -0.929908211328273E+00  0.738999765427869E+00  0.954777891806118E-03
 -0.929908211328273E+00  0.929908211328272E+00  0.320051952976971E-03
 -0.929908211328273E+00  0.100000000000000E+01  0.000000000000000E+00
 -0.738999765427872E+00 -0.100000000000000E+01  0.000000000000000E+00
 -0.738999765427872E+00 -0.929908211328273E+00  0.954777891806120E-03
 -0.738999765427872E+00 -0.738999765427872E+00  0.277149070586719E-02
 -0.738999765427872E+00 -0.481592278663059E+00  0.105596622537032E-01
 -0.738999765427872E+00 -0.238006831529782E+00  0.390839764700660E-01
 -0.738999765427872E+00 -0.109925021492528E-14  0.661325927849346E-01
 -0.738999765427872E+00  0.238006831529780E+00  0.390839764700664E-01
 -0.738999765427872E+00  0.481592278663057E+00  0.105596622537035E-01
 -0.738999765427872E+00  0.738999765427869E+00  0.277149070586737E-02
 -0.738999765427872E+00  0.929908211328272E+00  0.954777891806082E-03
 -0.738999765427872E+00  0.100000000000000E+01  0.000000000000000E+00
 -0.481592278663059E+00 -0.100000000000000E+01  0.000000000000000E+00
 -0.481592278663059E+00 -0.929908211328273E+00  0.301589628007808E-02
 -0.481592278663059E+00 -0.738999765427872E+00  0.105596622537032E-01
 -0.481592278663059E+00 -0.481592278663059E+00  0.192024182153009E-01
 -0.481592278663059E+00 -0.238006831529782E+00  0.390464282008799E-01
 -0.481592278663059E+00 -0.109925021492528E-14  0.511360435706017E-01
 -0.481592278663059E+00  0.238006831529780E+00  0.390464282008801E-01
 -0.481592278663059E+00  0.481592278663057E+00  0.192024182153010E-01
 -0.481592278663059E+00  0.738999765427869E+00  0.105596622537035E-01
 -0.481592278663059E+00  0.929908211328272E+00  0.301589628007820E-02
 -0.481592278663059E+00  0.100000000000000E+01  0.000000000000000E+00
 -0.238006831529782E+00 -0.100000000000000E+01  0.000000000000000E+00
 -0.238006831529782E+00 -0.929908211328273E+00  0.972053361571689E-02
 -0.238006831529782E+00 -0.738999765427872E+00  0.390839764700660E-01
 -0.238006831529782E+00 -0.481592278663059E+00  0.390464282008799E-01
 -0.238006831529782E+00 -0.238006831529782E+00 -0.371468992836623E-01
 -0.238006831529782E+00 -0.109925021492528E-14 -0.138409774374814E+00
 -0.238006831529782E+00  0.238006831529780E+00 -0.371468992836632E-01
 -0.238006831529782E+00  0.481592278663057E+00  0.390464282008794E-01
 -0.238006831529782E+00  0.738999765427869E+00  0.390839764700664E-01
 -0.238006831529782E+00  0.929908211328272E+00  0.972053361571726E-02
 -0.238006831529782E+00  0.100000000000000E+01  0.000000000000000E+00
 -0.109925021492528E-14 -0.100000000000000E+01  0.000000000000000E+00
 -0.109925021492528E-14 -0.929908211328273E+00  0.161397276217983E-01
 -0.109925021492528E-14 -0.738999765427872E+00  0.661325927849346E-01
 -0.109925021492528E-14 -0.481592278663059E+00  0.511360435706017E-01
 -0.109925021492528E-14 -0.238006831529782E+00 -0.138409774374814E+00
 -0.109925021492528E-14 -0.109925021492528E-14 -0.358734715018271E+00
 -0.109925021492528E-14  0.238006831529780E+00 -0.138409774374817E+00
 -0.109925021492528E-14  0.481592278663057E+00  0.511360435706008E-01
 -0.109925021492528E-14  0.738999765427869E+00  0.661325927849352E-01
 -0.109925021492528E-14  0.929908211328272E+00  0.161397276217989E-01
 -0.109925021492528E-14  0.100000000000000E+01  0.000000000000000E+00
  0.238006831529780E+00 -0.100000000000000E+01  0.000000000000000E+00
  0.238006831529780E+00 -0.929908211328273E+00  0.972053361571696E-02
  0.238006831529780E+00 -0.738999765427872E+00  0.390839764700664E-01
  0.238006831529780E+00 -0.481592278663059E+00  0.390464282008801E-01
  0.238006831529780E+00 -0.238006831529782E+00 -0.371468992836632E-01
  0.238006831529780E+00 -0.109925021492528E-14 -0.138409774374817E+00
  0.238006831529780E+00  0.238006831529780E+00 -0.371468992836641E-01
  0.238006831529780E+00  0.481592278663057E+00  0.390464282008798E-01
  0.238006831529780E+00  0.738999765427869E+00  0.390839764700666E-01
  0.238006831529780E+00  0.929908211328272E+00  0.972053361571727E-02
  0.238006831529780E+00  0.100000000000000E+01  0.000000000000000E+00
  0.481592278663057E+00 -0.100000000000000E+01  0.000000000000000E+00
  0.481592278663057E+00 -0.929908211328273E+00  0.301589628007813E-02
  0.481592278663057E+00 -0.738999765427872E+00  0.105596622537035E-01
  0.481592278663057E+00 -0.481592278663059E+00  0.192024182153010E-01
  0.481592278663057E+00 -0.238006831529782E+00  0.390464282008794E-01
  0.481592278663057E+00 -0.109925021492528E-14  0.511360435706008E-01
  0.481592278663057E+00  0.238006831529780E+00  0.390464282008798E-01
  0.481592278663057E+00  0.481592278663057E+00  0.192024182153012E-01
  0.481592278663057E+00  0.738999765427869E+00  0.105596622537035E-01
  0.481592278663057E+00  0.929908211328272E+00  0.301589628007820E-02
  0.481592278663057E+00  0.100000000000000E+01  0.000000000000000E+00
  0.738999765427869E+00 -0.100000000000000E+01  0.000000000000000E+00
  0.738999765427869E+00 -0.929908211328273E+00  0.954777891806118E-03
  0.738999765427869E+00 -0.738999765427872E+00  0.277149070586737E-02
  0.738999765427869E+00 -0.481592278663059E+00  0.105596622537035E-01
  0.738999765427869E+00 -0.238006831529782E+00  0.390839764700664E-01
  0.738999765427869E+00 -0.109925021492528E-14  0.661325927849352E-01
  0.738999765427869E+00  0.238006831529780E+00  0.390839764700666E-01
  0.738999765427869E+00  0.481592278663057E+00  0.105596622537035E-01
  0.738999765427869E+00  0.738999765427869E+00  0.277149070586748E-02
  0.738999765427869E+00  0.929908211328272E+00  0.954777891806093E-03
  0.738999765427869E+00  0.100000000000000E+01  0.000000000000000E+00
  0.929908211328272E+00 -0.100000000000000E+01  0.000000000000000E+00
  0.929908211328272E+00 -0.929908211328273E+00  0.320051952976971E-03
  0.929908211328272E+00 -0.738999765427872E+00  0.954777891806082E-03
  0.929908211328272E+00 -0.481592278663059E+00  0.301589628007820E-02
  0.929908211328272E+00 -0.238006831529782E+00  0.972053361571726E-02
  0.929908211328272E+00 -0.109925021492528E-14  0.161397276217989E-01
  0.929908211328272E+00  0.238006831529780E+00  0.972053361571727E-02
  0.929908211328272E+00  0.481592278663057E+00  0.301589628007820E-02
  0.929908211328272E+00  0.738999765427869E+00  0.954777891806093E-03
  0.929908211328272E+00  0.929908211328272E+00  0.320051952976926E-03
  0.929908211328272E+00  0.100000000000000E+01  0.000000000000000E+00
  0.100000000000000E+01 -0.100000000000000E+01  0.206115362243856E-08
  0.100000000000000E+01 -0.929908211328273E+00  0.000000000000000E+00
  0.100000000000000E+01 -0.738999765427872E+00  0.000000000000000E+00
  0.100000000000000E+01 -0.481592278663059E+00  0.000000000000000E+00
  0.100000000000000E+01 -0.238006831529782E+00  0.000000000000000E+00
  0.100000000000000E+01 -0.109925021492528E-14  0.000000000000000E+00
  0.100000000000000E+01  0.238006831529780E+00  0.000000000000000E+00
  0.100000000000000E+01  0.481592278663057E+00  0.000000000000000E+00
  0.100000000000000E+01  0.738999765427869E+00  0.000000000000000E+00
  0.100000000000000E+01  0.929908211328272E+00  0.000000000000000E+00
  0.100000000000000E+01  0.100000000000000E+01  0.206115362243856E-08
