 VARIABLES =  $x$  (d)
 ZONE I=         121 ,DATAPACKING=POINT
 -0.100000000000000E+01 -0.100000000000000E+01  0.206115362243856E-08
 -0.100000000000000E+01 -0.929908211328273E+00  0.000000000000000E+00
 -0.100000000000000E+01 -0.738999765427872E+00  0.000000000000000E+00
 -0.100000000000000E+01 -0.481592278663059E+00  0.000000000000000E+00
 -0.100000000000000E+01 -0.238006831529782E+00  0.000000000000000E+00
 -0.100000000000000E+01 -0.109925021492528E-14  0.000000000000000E+00
 -0.100000000000000E+01  0.238006831529780E+00  0.000000000000000E+00
 -0.100000000000000E+01  0.481592278663057E+00  0.000000000000000E+00
 -0.100000000000000E+01  0.738999765427869E+00  0.000000000000000E+00
 -0.100000000000000E+01  0.929908211328272E+00  0.000000000000000E+00
 -0.100000000000000E+01  0.100000000000000E+01  0.206115362243856E-08
 -0.929908211328273E+00 -0.100000000000000E+01  0.000000000000000E+00
 -0.929908211328273E+00 -0.929908211328273E+00 -0.116275749915375E-01
 -0.929908211328273E+00 -0.738999765427872E+00 -0.435554076290397E-01
 -0.929908211328273E+00 -0.481592278663059E+00 -0.685779487156926E-01
 -0.929908211328273E+00 -0.238006831529782E+00 -0.415652008485440E-01
 -0.929908211328273E+00 -0.109925021492528E-14 -0.532297666607220E-04
 -0.929908211328273E+00  0.238006831529780E+00 -0.415652008485434E-01
 -0.929908211328273E+00  0.481592278663057E+00 -0.685779487156928E-01
 -0.929908211328273E+00  0.738999765427869E+00 -0.435554076290403E-01
 -0.929908211328273E+00  0.929908211328272E+00 -0.116275749915377E-01
 -0.929908211328273E+00  0.100000000000000E+01  0.000000000000000E+00
 -0.738999765427872E+00 -0.100000000000000E+01  0.000000000000000E+00
 -0.738999765427872E+00 -0.929908211328273E+00 -0.435554076290397E-01
 -0.738999765427872E+00 -0.738999765427872E+00 -0.163155561676890E+00
 -0.738999765427872E+00 -0.481592278663059E+00 -0.255852632380778E+00
 -0.738999765427872E+00 -0.238006831529782E+00 -0.149334079292165E+00
 -0.738999765427872E+00 -0.109925021492528E-14  0.103089783984622E-01
 -0.738999765427872E+00  0.238006831529780E+00 -0.149334079292163E+00
 -0.738999765427872E+00  0.481592278663057E+00 -0.255852632380779E+00
 -0.738999765427872E+00  0.738999765427869E+00 -0.163155561676892E+00
 -0.738999765427872E+00  0.929908211328272E+00 -0.435554076290406E-01
 -0.738999765427872E+00  0.100000000000000E+01  0.000000000000000E+00
 -0.481592278663059E+00 -0.100000000000000E+01  0.000000000000000E+00
 -0.481592278663059E+00 -0.929908211328273E+00 -0.685779487156926E-01
 -0.481592278663059E+00 -0.738999765427872E+00 -0.255852632380778E+00
 -0.481592278663059E+00 -0.481592278663059E+00 -0.401904282183244E+00
 -0.481592278663059E+00 -0.238006831529782E+00 -0.231850907489177E+00
 -0.481592278663059E+00 -0.109925021492528E-14  0.149904888627782E-01
 -0.481592278663059E+00  0.238006831529780E+00 -0.231850907489173E+00
 -0.481592278663059E+00  0.481592278663057E+00 -0.401904282183245E+00
 -0.481592278663059E+00  0.738999765427869E+00 -0.255852632380781E+00
 -0.481592278663059E+00  0.929908211328272E+00 -0.685779487156940E-01
 -0.481592278663059E+00  0.100000000000000E+01  0.000000000000000E+00
 -0.238006831529782E+00 -0.100000000000000E+01  0.000000000000000E+00
 -0.238006831529782E+00 -0.929908211328273E+00 -0.415652008485440E-01
 -0.238006831529782E+00 -0.738999765427872E+00 -0.149334079292165E+00
 -0.238006831529782E+00 -0.481592278663059E+00 -0.231850907489177E+00
 -0.238006831529782E+00 -0.238006831529782E+00 -0.110058327247165E+00
 -0.238006831529782E+00 -0.109925021492528E-14  0.339427719501158E-01
 -0.238006831529782E+00  0.238006831529780E+00 -0.110058327247163E+00
 -0.238006831529782E+00  0.481592278663057E+00 -0.231850907489178E+00
 -0.238006831529782E+00  0.738999765427869E+00 -0.149334079292167E+00
 -0.238006831529782E+00  0.929908211328272E+00 -0.415652008485450E-01
 -0.238006831529782E+00  0.100000000000000E+01  0.000000000000000E+00
 -0.109925021492528E-14 -0.100000000000000E+01  0.000000000000000E+00
 -0.109925021492528E-14 -0.929908211328273E+00 -0.532297666607220E-04
 -0.109925021492528E-14 -0.738999765427872E+00  0.103089783984622E-01
 -0.109925021492528E-14 -0.481592278663059E+00  0.149904888627782E-01
 -0.109925021492528E-14 -0.238006831529782E+00  0.339427719501158E-01
 -0.109925021492528E-14 -0.109925021492528E-14  0.179910576734202E-01
 -0.109925021492528E-14  0.238006831529780E+00  0.339427719501159E-01
 -0.109925021492528E-14  0.481592278663057E+00  0.149904888627780E-01
 -0.109925021492528E-14  0.738999765427869E+00  0.103089783984619E-01
 -0.109925021492528E-14  0.929908211328272E+00 -0.532297666610531E-04
 -0.109925021492528E-14  0.100000000000000E+01  0.000000000000000E+00
  0.238006831529780E+00 -0.100000000000000E+01  0.000000000000000E+00
  0.238006831529780E+00 -0.929908211328273E+00 -0.415652008485434E-01
  0.238006831529780E+00 -0.738999765427872E+00 -0.149334079292163E+00
  0.238006831529780E+00 -0.481592278663059E+00 -0.231850907489173E+00
  0.238006831529780E+00 -0.238006831529782E+00 -0.110058327247163E+00
  0.238006831529780E+00 -0.109925021492528E-14  0.339427719501159E-01
  0.238006831529780E+00  0.238006831529780E+00 -0.110058327247160E+00
  0.238006831529780E+00  0.481592278663057E+00 -0.231850907489174E+00
  0.238006831529780E+00  0.738999765427869E+00 -0.149334079292165E+00
  0.238006831529780E+00  0.929908211328272E+00 -0.415652008485444E-01
  0.238006831529780E+00  0.100000000000000E+01  0.000000000000000E+00
  0.481592278663057E+00 -0.100000000000000E+01  0.000000000000000E+00
  0.481592278663057E+00 -0.929908211328273E+00 -0.685779487156928E-01
  0.481592278663057E+00 -0.738999765427872E+00 -0.255852632380779E+00
  0.481592278663057E+00 -0.481592278663059E+00 -0.401904282183245E+00
  0.481592278663057E+00 -0.238006831529782E+00 -0.231850907489178E+00
  0.481592278663057E+00 -0.109925021492528E-14  0.149904888627780E-01
  0.481592278663057E+00  0.238006831529780E+00 -0.231850907489174E+00
  0.481592278663057E+00  0.481592278663057E+00 -0.401904282183246E+00
  0.481592278663057E+00  0.738999765427869E+00 -0.255852632380782E+00
  0.481592278663057E+00  0.929908211328272E+00 -0.685779487156943E-01
  0.481592278663057E+00  0.100000000000000E+01  0.000000000000000E+00
  0.738999765427869E+00 -0.100000000000000E+01  0.000000000000000E+00
  0.738999765427869E+00 -0.929908211328273E+00 -0.435554076290403E-01
  0.738999765427869E+00 -0.738999765427872E+00 -0.163155561676892E+00
  0.738999765427869E+00 -0.481592278663059E+00 -0.255852632380781E+00
  0.738999765427869E+00 -0.238006831529782E+00 -0.149334079292167E+00
  0.738999765427869E+00 -0.109925021492528E-14  0.103089783984619E-01
  0.738999765427869E+00  0.238006831529780E+00 -0.149334079292165E+00
  0.738999765427869E+00  0.481592278663057E+00 -0.255852632380782E+00
  0.738999765427869E+00  0.738999765427869E+00 -0.163155561676893E+00
  0.738999765427869E+00  0.929908211328272E+00 -0.435554076290412E-01
  0.738999765427869E+00  0.100000000000000E+01  0.000000000000000E+00
  0.929908211328272E+00 -0.100000000000000E+01  0.000000000000000E+00
  0.929908211328272E+00 -0.929908211328273E+00 -0.116275749915377E-01
  0.929908211328272E+00 -0.738999765427872E+00 -0.435554076290406E-01
  0.929908211328272E+00 -0.481592278663059E+00 -0.685779487156940E-01
  0.929908211328272E+00 -0.238006831529782E+00 -0.415652008485450E-01
  0.929908211328272E+00 -0.109925021492528E-14 -0.532297666610531E-04
  0.929908211328272E+00  0.238006831529780E+00 -0.415652008485444E-01
  0.929908211328272E+00  0.481592278663057E+00 -0.685779487156943E-01
  0.929908211328272E+00  0.738999765427869E+00 -0.435554076290412E-01
  0.929908211328272E+00  0.929908211328272E+00 -0.116275749915380E-01
  0.929908211328272E+00  0.100000000000000E+01  0.000000000000000E+00
  0.100000000000000E+01 -0.100000000000000E+01  0.206115362243856E-08
  0.100000000000000E+01 -0.929908211328273E+00  0.000000000000000E+00
  0.100000000000000E+01 -0.738999765427872E+00  0.000000000000000E+00
  0.100000000000000E+01 -0.481592278663059E+00  0.000000000000000E+00
  0.100000000000000E+01 -0.238006831529782E+00  0.000000000000000E+00
  0.100000000000000E+01 -0.109925021492528E-14  0.000000000000000E+00
  0.100000000000000E+01  0.238006831529780E+00  0.000000000000000E+00
  0.100000000000000E+01  0.481592278663057E+00  0.000000000000000E+00
  0.100000000000000E+01  0.738999765427869E+00  0.000000000000000E+00
  0.100000000000000E+01  0.929908211328272E+00  0.000000000000000E+00
  0.100000000000000E+01  0.100000000000000E+01  0.206115362243856E-08
