 VARIABLES = "X", "Y", "U0", "U1", "U2", "U3" 
 ZONE I=          21 , J=          21 ,DATAPACKING=POINT
  -1.00000000000000       -1.00000000000000       0.000000000000000E+000
  0.000000000000000E+000  0.000000000000000E+000  0.000000000000000E+000
  -1.00000000000000      -0.975060457533844       0.000000000000000E+000
  0.000000000000000E+000  0.000000000000000E+000  0.000000000000000E+000
  -1.00000000000000      -0.904141431802467       0.000000000000000E+000
  0.000000000000000E+000  0.000000000000000E+000  0.000000000000000E+000
  -1.00000000000000      -0.798443291855323       0.000000000000000E+000
  0.000000000000000E+000  0.000000000000000E+000  0.000000000000000E+000
  -1.00000000000000      -0.675337414025638       0.000000000000000E+000
  0.000000000000000E+000  0.000000000000000E+000  0.000000000000000E+000
  -1.00000000000000      -0.560523029461074       0.000000000000000E+000
  0.000000000000000E+000  0.000000000000000E+000  0.000000000000000E+000
  -1.00000000000000      -0.449536557024029       0.000000000000000E+000
  0.000000000000000E+000  0.000000000000000E+000  0.000000000000000E+000
  -1.00000000000000      -0.337641464801303       0.000000000000000E+000
  0.000000000000000E+000  0.000000000000000E+000  0.000000000000000E+000
  -1.00000000000000      -0.224951994744527       0.000000000000000E+000
  0.000000000000000E+000  0.000000000000000E+000  0.000000000000000E+000
  -1.00000000000000      -0.112343328682423       0.000000000000000E+000
  0.000000000000000E+000  0.000000000000000E+000  0.000000000000000E+000
  -1.00000000000000      -8.129045590449418E-018  0.000000000000000E+000
  0.000000000000000E+000  0.000000000000000E+000  0.000000000000000E+000
  -1.00000000000000       0.112343328682423       0.000000000000000E+000
  0.000000000000000E+000  0.000000000000000E+000  0.000000000000000E+000
  -1.00000000000000       0.224951994744527       0.000000000000000E+000
  0.000000000000000E+000  0.000000000000000E+000  0.000000000000000E+000
  -1.00000000000000       0.337641464801303       0.000000000000000E+000
  0.000000000000000E+000  0.000000000000000E+000  0.000000000000000E+000
  -1.00000000000000       0.449536557024029       0.000000000000000E+000
  0.000000000000000E+000  0.000000000000000E+000  0.000000000000000E+000
  -1.00000000000000       0.560523029461074       0.000000000000000E+000
  0.000000000000000E+000  0.000000000000000E+000  0.000000000000000E+000
  -1.00000000000000       0.675337414025638       0.000000000000000E+000
  0.000000000000000E+000  0.000000000000000E+000  0.000000000000000E+000
  -1.00000000000000       0.798443291855323       0.000000000000000E+000
  0.000000000000000E+000  0.000000000000000E+000  0.000000000000000E+000
  -1.00000000000000       0.904141431802467       0.000000000000000E+000
  0.000000000000000E+000  0.000000000000000E+000  0.000000000000000E+000
  -1.00000000000000       0.975060457533844       0.000000000000000E+000
  0.000000000000000E+000  0.000000000000000E+000  0.000000000000000E+000
  -1.00000000000000        1.00000000000000       0.000000000000000E+000
  0.000000000000000E+000  0.000000000000000E+000  0.000000000000000E+000
 -0.975060457533844       -1.00000000000000       0.000000000000000E+000
  0.000000000000000E+000  0.000000000000000E+000  0.000000000000000E+000
 -0.975060457533844      -0.975060457533844       2.576757109154981E-018
 -2.703751295957651E-011  1.094308096991360E-009  8.824813312480858E-009
 -0.975060457533844      -0.904141431802467       1.806446196545693E-016
 -1.570140391317764E-010  5.356810635968752E-009  3.691127920640819E-008
 -0.975060457533844      -0.798443291855323       7.681204685202094E-015
 -1.189423025118836E-009  2.245994619342081E-008  1.012664989628329E-007
 -0.975060457533844      -0.675337414025638       1.981008798048980E-013
 -8.846770961131027E-009  9.043514795589765E-008  2.444950036192800E-007
 -0.975060457533844      -0.560523029461074       3.098819138721825E-012
 -4.264670583782356E-008  2.682310211773908E-007  4.804831496964489E-007
 -0.975060457533844      -0.449536557024029       2.940077739284473E-011
 -1.472036193165577E-007  6.327725613546392E-007  8.183178110206102E-007
 -0.975060457533844      -0.337641464801303       1.691897922615130E-010
 -3.888885770513155E-007  1.241749571759901E-006  1.243239872131516E-006
 -0.975060457533844      -0.224951994744527       5.905303998944040E-010
 -7.824574197794833E-007  2.017482269318723E-006  1.679919086065402E-006
 -0.975060457533844      -0.112343328682423       1.250152866386743E-009
 -1.190121011737208E-006  2.698587910037892E-006  2.011942429910098E-006
 -0.975060457533844      -8.129045590449418E-018  1.605228055185612E-009
 -1.368293210526661E-006  2.972525583821896E-006  2.136208019105106E-006
 -0.975060457533844       0.112343328682423       1.250152866386743E-009
 -1.190121011737182E-006  2.698587910037900E-006  2.011942429910098E-006
 -0.975060457533844       0.224951994744527       5.905303998944040E-010
 -7.824574197794681E-007  2.017482269318723E-006  1.679919086065404E-006
 -0.975060457533844       0.337641464801303       1.691897922615130E-010
 -3.888885770512966E-007  1.241749571759892E-006  1.243239872131520E-006
 -0.975060457533844       0.449536557024029       2.940077739284473E-011
 -1.472036193165489E-007  6.327725613546341E-007  8.183178110206140E-007
 -0.975060457533844       0.560523029461074       3.098819138721825E-012
 -4.264670583782275E-008  2.682310211773898E-007  4.804831496964513E-007
 -0.975060457533844       0.675337414025638       1.981008798048980E-013
 -8.846770961131826E-009  9.043514795589823E-008  2.444950036192815E-007
 -0.975060457533844       0.798443291855323       7.681204685202094E-015
 -1.189423025119114E-009  2.245994619342105E-008  1.012664989628334E-007
 -0.975060457533844       0.904141431802467       1.806446196545693E-016
 -1.570140391318342E-010  5.356810635968822E-009  3.691127920640851E-008
 -0.975060457533844       0.975060457533844       2.576757109154981E-018
 -2.703751295958145E-011  1.094308096991372E-009  8.824813312480962E-009
 -0.975060457533844        1.00000000000000       0.000000000000000E+000
  0.000000000000000E+000  0.000000000000000E+000  0.000000000000000E+000
 -0.904141431802467       -1.00000000000000       0.000000000000000E+000
  0.000000000000000E+000  0.000000000000000E+000  0.000000000000000E+000
 -0.904141431802467      -0.975060457533844       1.806446196545693E-016
  1.142205937256091E-010 -4.331757079354627E-009 -7.350889039716798E-008
 -0.904141431802467      -0.904141431802467       1.266416554909417E-014
  6.633094092541904E-010 -2.120463374220663E-008 -3.074634081875010E-007
 -0.904141431802467      -0.798443291855323       5.384940217754036E-013
  5.024744798006581E-009 -8.890643431903275E-008 -8.435292294901378E-007
 -0.904141431802467      -0.675337414025638       1.388794386496402E-011
  3.737338636145126E-008 -3.579824489430509E-007 -2.036593386210944E-006
 -0.904141431802467      -0.560523029461074       2.172439935079017E-010
  1.801619853893360E-007 -1.061777417262014E-006 -4.002326388727180E-006
 -0.904141431802467      -0.449536557024029       2.061153622438558E-009
  6.218650645221747E-007 -2.504794608846311E-006 -6.816420037897661E-006
 -0.904141431802467      -0.337641464801303       1.186112015134383E-008
  1.642868719862980E-006 -4.915395866130205E-006 -1.035593391977824E-005
 -0.904141431802467      -0.224951994744527       4.139937718785167E-008
  3.305509347428478E-006 -7.986090134946117E-006 -1.399338248049135E-005
 -0.904141431802467      -0.112343328682423       8.764248219443636E-008
  5.027693575846374E-006 -1.068220851917858E-005 -1.675906904313023E-005
 -0.904141431802467      -8.129045590449418E-018  1.125351747192591E-007
  5.780386133024447E-006 -1.176657539888014E-005 -1.779417599148637E-005
 -0.904141431802467       0.112343328682423       8.764248219443636E-008
  5.027693575846291E-006 -1.068220851917862E-005 -1.675906904313023E-005
 -0.904141431802467       0.224951994744527       4.139937718785167E-008
  3.305509347428478E-006 -7.986090134946113E-006 -1.399338248049137E-005
 -0.904141431802467       0.337641464801303       1.186112015134383E-008
  1.642868719862945E-006 -4.915395866130158E-006 -1.035593391977827E-005
 -0.904141431802467       0.449536557024029       2.061153622438558E-009
  6.218650645221496E-007 -2.504794608846280E-006 -6.816420037897691E-006
 -0.904141431802467       0.560523029461074       2.172439935079017E-010
  1.801619853893337E-007 -1.061777417262007E-006 -4.002326388727199E-006
 -0.904141431802467       0.675337414025638       1.388794386496402E-011
  3.737338636145468E-008 -3.579824489430533E-007 -2.036593386210956E-006
 -0.904141431802467       0.798443291855323       5.384940217754036E-013
  5.024744798007811E-009 -8.890643431903382E-008 -8.435292294901423E-007
 -0.904141431802467       0.904141431802467       1.266416554909417E-014
  6.633094092544686E-010 -2.120463374220687E-008 -3.074634081875038E-007
 -0.904141431802467       0.975060457533844       1.806446196545693E-016
  1.142205937256418E-010 -4.331757079354658E-009 -7.350889039716892E-008
 -0.904141431802467        1.00000000000000       0.000000000000000E+000
  0.000000000000000E+000  0.000000000000000E+000  0.000000000000000E+000
 -0.798443291855323       -1.00000000000000       0.000000000000000E+000
  0.000000000000000E+000  0.000000000000000E+000  0.000000000000000E+000
 -0.798443291855323      -0.975060457533844       7.681204685202094E-015
 -1.687280968330891E-010  4.440469409178779E-009  4.131010529857125E-009
 -0.798443291855323      -0.904141431802467       5.384940217754036E-013
 -9.798489989460542E-010  2.173679772781436E-008  1.727865253740229E-008
 -0.798443291855323      -0.798443291855323       2.289734845645553E-011
 -7.422616242551850E-009  9.113768254966046E-008  4.740417244999959E-008
 -0.798443291855323      -0.675337414025638       5.905303998944040E-010
 -5.520843673763877E-008  3.669665871996052E-007  1.144513081625959E-007
 -0.798443291855323      -0.560523029461074       9.237449661970596E-009
 -2.661375520242429E-007  1.088424408338132E-006  2.249204445878523E-007
 -0.798443291855323      -0.449536557024029       8.764248219443636E-008
 -9.186268962560694E-007  2.567656409134595E-006  3.830652661305250E-007
 -0.798443291855323      -0.337641464801303       5.043476625678880E-007
 -2.426866332143676E-006  5.038755535753953E-006  5.819768379165244E-007
 -0.798443291855323      -0.224951994744527       1.760346312156169E-006
 -4.882939961861023E-006  8.186513757722663E-006  7.863920866049005E-007
 -0.798443291855323      -0.112343328682423       3.726653172078671E-006
 -7.426972140907558E-006  1.095029551841046E-005  9.418165543544066E-007
 -0.798443291855323      -8.129045590449418E-018  4.785117392129009E-006
 -8.538859041510247E-006  1.206187630870813E-005  9.999869011661400E-007
 -0.798443291855323       0.112343328682423       3.726653172078671E-006
 -7.426972140907348E-006  1.095029551841050E-005  9.418165543544087E-007
 -0.798443291855323       0.224951994744527       1.760346312156169E-006
 -4.882939961860881E-006  8.186513757722665E-006  7.863920866049046E-007
 -0.798443291855323       0.337641464801303       5.043476625678880E-007
 -2.426866332143566E-006  5.038755535753918E-006  5.819768379165330E-007
 -0.798443291855323       0.449536557024029       8.764248219443636E-008
 -9.186268962560271E-007  2.567656409134568E-006  3.830652661305300E-007
 -0.798443291855323       0.560523029461074       9.237449661970596E-009
 -2.661375520242398E-007  1.088424408338125E-006  2.249204445878540E-007
 -0.798443291855323       0.675337414025638       5.905303998944040E-010
 -5.520843673764249E-008  3.669665871996068E-007  1.144513081625965E-007
 -0.798443291855323       0.798443291855323       2.289734845645553E-011
 -7.422616242553025E-009  9.113768254966145E-008  4.740417244999970E-008
 -0.798443291855323       0.904141431802467       5.384940217754036E-013
 -9.798489989463046E-010  2.173679772781470E-008  1.727865253740223E-008
 -0.798443291855323       0.975060457533844       7.681204685202094E-015
 -1.687280968331111E-010  4.440469409178846E-009  4.131010529857106E-009
 -0.798443291855323        1.00000000000000       0.000000000000000E+000
  0.000000000000000E+000  0.000000000000000E+000  0.000000000000000E+000
 -0.675337414025638       -1.00000000000000       0.000000000000000E+000
  0.000000000000000E+000  0.000000000000000E+000  0.000000000000000E+000
 -0.675337414025638      -0.975060457533844       1.981008798048980E-013
  1.101402201614749E-010 -6.112896517339200E-009 -1.122027512353306E-007
 -0.675337414025638      -0.904141431802467       1.388794386496402E-011
  6.396135946196375E-010 -2.992359206273866E-008 -4.693070473232474E-007
 -0.675337414025638      -0.798443291855323       5.905303998944040E-010
  4.845242867817055E-009 -1.254631372210004E-007 -1.287549027071962E-006
 -0.675337414025638      -0.675337414025638       1.522997974471263E-008
  3.603827553704421E-008 -5.051782975920232E-007 -3.108622371010576E-006
 -0.675337414025638      -0.560523029461074       2.382369667501818E-007
  1.737259573281078E-007 -1.498360911024571E-006 -6.109084628303999E-006
 -0.675337414025638      -0.449536557024029       2.260329406981054E-006
  5.996498292120592E-007 -3.534720434484912E-006 -1.040447050879977E-005
 -0.675337414025638      -0.337641464801303       1.300729765406762E-005
  1.584179593013422E-006 -6.936516933014775E-006 -1.580712580347266E-005
 -0.675337414025638      -0.224951994744527       4.539992976248485E-005
  3.187424759431569E-006 -1.126982464354830E-005 -2.135926696824741E-005
 -0.675337414025638      -0.112343328682423       9.611165206139469E-005
  4.848086408706991E-006 -1.507453770280639E-005 -2.558076507539869E-005
 -0.675337414025638      -8.129045590449418E-018  1.234098040866796E-004
  5.573890094145400E-006 -1.660477645375455E-005 -2.716073515671557E-005
 -0.675337414025638       0.112343328682423       9.611165206139469E-005
  4.848086408706908E-006 -1.507453770280645E-005 -2.558076507539868E-005
 -0.675337414025638       0.224951994744527       4.539992976248485E-005
  3.187424759431550E-006 -1.126982464354831E-005 -2.135926696824743E-005
 -0.675337414025638       0.337641464801303       1.300729765406762E-005
  1.584179593013342E-006 -6.936516933014734E-006 -1.580712580347271E-005
 -0.675337414025638       0.449536557024029       2.260329406981058E-006
  5.996498292120130E-007 -3.534720434484888E-006 -1.040447050879981E-005
 -0.675337414025638       0.560523029461074       2.382369667501818E-007
  1.737259573281023E-007 -1.498360911024569E-006 -6.109084628304028E-006
 -0.675337414025638       0.675337414025638       1.522997974471263E-008
  3.603827553704859E-008 -5.051782975920275E-007 -3.108622371010594E-006
 -0.675337414025638       0.798443291855323       5.905303998944040E-010
  4.845242867818670E-009 -1.254631372210018E-007 -1.287549027071970E-006
 -0.675337414025638       0.904141431802467       1.388794386496402E-011
  6.396135946199677E-010 -2.992359206273894E-008 -4.693070473232517E-007
 -0.675337414025638       0.975060457533844       1.981008798048987E-013
  1.101402201615047E-010 -6.112896517339233E-009 -1.122027512353319E-007
 -0.675337414025638        1.00000000000000       0.000000000000000E+000
  0.000000000000000E+000  0.000000000000000E+000  0.000000000000000E+000
 -0.560523029461074       -1.00000000000000       0.000000000000000E+000
  0.000000000000000E+000  0.000000000000000E+000  0.000000000000000E+000
 -0.560523029461074      -0.975060457533844       3.098819138721825E-012
 -4.606159237537387E-010  2.208152644247587E-008  1.190749752184813E-007
 -0.560523029461074      -0.904141431802467       2.172439935079017E-010
 -2.674919351808680E-009  1.080925527592963E-007  4.980512902527028E-007
 -0.560523029461074      -0.798443291855323       9.237449661970596E-009
 -2.026322414887528E-008  4.532086504519685E-007  1.366409172033024E-006
 -0.560523029461074      -0.675337414025638       2.382369667501818E-007
 -1.507151777506367E-007  1.824848154501083E-006  3.299020098536967E-006
 -0.560523029461074      -0.560523029461074       3.726653172078671E-006
 -7.265369316584020E-007  5.412507139712982E-006  6.483255461715886E-006
 -0.560523029461074      -0.449536557024029       3.535750085040998E-005
 -2.507787258370500E-006  1.276841877255327E-005  1.104172627152017E-005
 -0.560523029461074      -0.337641464801303       2.034683690106442E-004
 -6.625175519428679E-006  2.505667835668898E-005  1.677528482424701E-005
 -0.560523029461074      -0.224951994744527       7.101743888425491E-004
 -1.333008484671301E-005  4.070982222321052E-005  2.266748499657856E-005
 -0.560523029461074      -0.112343328682423       1.503439192977573E-003
 -2.027511483012734E-005  5.445353138461781E-005  2.714754253385282E-005
 -0.560523029461074      -8.129045590449418E-018  1.930454136227709E-003
 -2.331048832334782E-005  5.998119037275343E-005  2.882428303963236E-005
 -0.560523029461074       0.112343328682423       1.503439192977573E-003
 -2.027511483012690E-005  5.445353138461798E-005  2.714754253385282E-005
 -0.560523029461074       0.224951994744527       7.101743888425491E-004
 -1.333008484671274E-005  4.070982222321054E-005  2.266748499657860E-005
 -0.560523029461074       0.337641464801303       2.034683690106442E-004
 -6.625175519428308E-006  2.505667835668882E-005  1.677528482424706E-005
 -0.560523029461074       0.449536557024029       3.535750085041004E-005
 -2.507787258370326E-006  1.276841877255317E-005  1.104172627152022E-005
 -0.560523029461074       0.560523029461074       3.726653172078671E-006
 -7.265369316583855E-007  5.412507139712963E-006  6.483255461715917E-006
 -0.560523029461074       0.675337414025638       2.382369667501814E-007
 -1.507151777506519E-007  1.824848154501095E-006  3.299020098536989E-006
 -0.560523029461074       0.798443291855323       9.237449661970596E-009
 -2.026322414888064E-008  4.532086504519732E-007  1.366409172033032E-006
 -0.560523029461074       0.904141431802467       2.172439935079017E-010
 -2.674919351809778E-009  1.080925527592978E-007  4.980512902527073E-007
 -0.560523029461074       0.975060457533844       3.098819138721836E-012
 -4.606159237538228E-010  2.208152644247616E-008  1.190749752184828E-007
 -0.560523029461074        1.00000000000000       0.000000000000000E+000
  0.000000000000000E+000  0.000000000000000E+000  0.000000000000000E+000
 -0.449536557024029       -1.00000000000000       0.000000000000000E+000
  0.000000000000000E+000  0.000000000000000E+000  0.000000000000000E+000
 -0.449536557024029      -0.975060457533844       2.940077739284473E-011
  4.852964282713272E-010 -3.559746959543375E-008 -5.325567852333862E-009
 -0.449536557024029      -0.904141431802467       2.061153622438558E-009
  2.818245643005418E-009 -1.742552250437168E-007 -2.227509125475468E-008
 -0.449536557024029      -0.798443291855323       8.764248219443636E-008
  2.134895876513700E-008 -7.306143978691284E-007 -6.111195689814577E-008
 -0.449536557024029      -0.675337414025638       2.260329406981054E-006
  1.587907252663680E-007 -2.941824552684041E-006 -1.475470001266940E-007
 -0.449536557024029      -0.560523029461074       3.535750085040998E-005
  7.654658638279586E-007 -8.725463735848301E-006 -2.899603120153068E-007
 -0.449536557024029      -0.449536557024029       3.354626279025118E-004
  2.642158187188193E-006 -2.058387584484273E-005 -4.938356086291148E-007
 -0.449536557024029      -0.337641464801303       1.930454136227709E-003
  6.980162059627844E-006 -4.039369052760158E-005 -7.502661105914452E-007
 -0.449536557024029      -0.224951994744527       6.737946999085466E-003
  1.404433003762881E-005 -6.562801090522952E-005 -1.013791780114114E-006
 -0.449536557024029      -0.112343328682423       1.426423390899925E-002
  2.136148463446188E-005 -8.778414536209312E-005 -1.214160086084408E-006
 -0.449536557024029      -8.129045590449418E-018  1.831563888873418E-002
  2.455949776054055E-005 -9.669524456672383E-005 -1.289151456764128E-006
 -0.449536557024029       0.112343328682423       1.426423390899925E-002
  2.136148463446151E-005 -8.778414536209320E-005 -1.214160086084404E-006
 -0.449536557024029       0.224951994744527       6.737946999085466E-003
  1.404433003762818E-005 -6.562801090522960E-005 -1.013791780114111E-006
 -0.449536557024029       0.337641464801303       1.930454136227709E-003
  6.980162059627043E-006 -4.039369052760153E-005 -7.502661105914607E-007
 -0.449536557024029       0.449536557024029       3.354626279025124E-004
  2.642158187187876E-006 -2.058387584484271E-005 -4.938356086291297E-007
 -0.449536557024029       0.560523029461074       3.535750085040998E-005
  7.654658638279274E-007 -8.725463735848320E-006 -2.899603120153098E-007
 -0.449536557024029       0.675337414025638       2.260329406981050E-006
  1.587907252663868E-007 -2.941824552684062E-006 -1.475470001266944E-007
 -0.449536557024029       0.798443291855323       8.764248219443636E-008
  2.134895876514379E-008 -7.306143978691343E-007 -6.111195689814479E-008
 -0.449536557024029       0.904141431802467       2.061153622438558E-009
  2.818245643006588E-009 -1.742552250437191E-007 -2.227509125475386E-008
 -0.449536557024029       0.975060457533844       2.940077739284483E-011
  4.852964282713345E-010 -3.559746959543428E-008 -5.325567852333704E-009
 -0.449536557024029        1.00000000000000       0.000000000000000E+000
  0.000000000000000E+000  0.000000000000000E+000  0.000000000000000E+000
 -0.337641464801303       -1.00000000000000       0.000000000000000E+000
  0.000000000000000E+000  0.000000000000000E+000  0.000000000000000E+000
 -0.337641464801303      -0.975060457533844       1.691897922615130E-010
  4.600859307440863E-009  7.205650529562974E-008  2.753625114178906E-007
 -0.337641464801303      -0.904141431802467       1.186112015134383E-008
  2.671841565465215E-008  3.527279519912247E-007  1.151750431749057E-006
 -0.337641464801303      -0.798443291855323       5.043476625678880E-007
  2.023990854392260E-007  1.478911867345173E-006  3.159839930703277E-006
 -0.337641464801303      -0.675337414025638       1.300729765406762E-005
  1.505417569965038E-006  5.954850130611634E-006  7.629029179929168E-006
 -0.337641464801303      -0.560523029461074       2.034683690106442E-004
  7.257009391776034E-006  1.766211000474854E-005  1.499261709313924E-005
 -0.337641464801303      -0.449536557024029       1.930454136227709E-003
  2.504901681580671E-005  4.166594355009549E-005  2.553414331255535E-005
 -0.337641464801303      -0.337641464801303       1.110899653824230E-002
  6.617552359846225E-005  8.176503015463623E-005  3.879307604491835E-005
 -0.337641464801303      -0.224951994744527       3.877420783172201E-002
  1.331474693917136E-004  1.328444175350233E-004  5.241886969925386E-005
 -0.337641464801303      -0.112343328682423       8.208499862389876E-002
  2.025178598267329E-004  1.776929316911344E-004  6.277906415698654E-005
 -0.337641464801303      -8.129045590449418E-018  0.105399224561864     
  2.328366700339632E-004  1.957308055623552E-004  6.665654955788193E-005
 -0.337641464801303       0.112343328682423       8.208499862389872E-002
  2.025178598267317E-004  1.776929316911346E-004  6.277906415698652E-005
 -0.337641464801303       0.224951994744527       3.877420783172201E-002
  1.331474693917134E-004  1.328444175350234E-004  5.241886969925389E-005
 -0.337641464801303       0.337641464801303       1.110899653824230E-002
  6.617552359846311E-005  8.176503015463618E-005  3.879307604491841E-005
 -0.337641464801303       0.449536557024029       1.930454136227713E-003
  2.504901681580718E-005  4.166594355009554E-005  2.553414331255547E-005
 -0.337641464801303       0.560523029461074       2.034683690106442E-004
  7.257009391776106E-006  1.766211000474861E-005  1.499261709313932E-005
 -0.337641464801303       0.675337414025638       1.300729765406760E-005
  1.505417569965022E-006  5.954850130611682E-006  7.629029179929217E-006
 -0.337641464801303       0.798443291855323       5.043476625678880E-007
  2.023990854392169E-007  1.478911867345185E-006  3.159839930703297E-006
 -0.337641464801303       0.904141431802467       1.186112015134383E-008
  2.671841565465189E-008  3.527279519912290E-007  1.151750431749067E-006
 -0.337641464801303       0.975060457533844       1.691897922615136E-010
  4.600859307441187E-009  7.205650529563066E-008  2.753625114178940E-007
 -0.337641464801303        1.00000000000000       0.000000000000000E+000
  0.000000000000000E+000  0.000000000000000E+000  0.000000000000000E+000
 -0.224951994744527       -1.00000000000000       0.000000000000000E+000
  0.000000000000000E+000  0.000000000000000E+000  0.000000000000000E+000
 -0.224951994744527      -0.975060457533844       5.905303998944040E-010
  3.133730056391420E-008 -1.377250675063661E-007  1.087237639620003E-007
 -0.224951994744527      -0.904141431802467       4.139937718785167E-008
  1.819840524050595E-007 -6.741859154964130E-007  4.547555927636870E-007
 -0.224951994744527      -0.798443291855323       1.760346312156169E-006
  1.378577454687899E-006 -2.826715447850820E-006  1.247626952586079E-006
 -0.224951994744527      -0.675337414025638       4.539992976248485E-005
  1.025367625371488E-005 -1.138179172019567E-005  3.012235631897449E-006
 -0.224951994744527      -0.560523029461074       7.101743888425491E-004
  4.942882655003746E-005 -3.375844109334516E-005  5.919664791192975E-006
 -0.224951994744527      -0.449536557024029       6.737946999085466E-003
  1.706134617493954E-004 -7.963812365880321E-005  1.008186684064009E-005
 -0.224951994744527      -0.337641464801303       3.877420783172201E-002
  4.507336615430233E-004 -1.562814381858267E-004  1.531700602437413E-005
 -0.224951994744527      -0.224951994744527       0.135335283236613     
  9.068918954978016E-004 -2.539119301458907E-004  2.069699607916334E-005
 -0.224951994744527      -0.112343328682423       0.286504796860190     
  1.379386374572026E-003 -3.396330541633918E-004  2.478760133433378E-005
 -0.224951994744527      -8.129045590449418E-018  0.367879441171443     
  1.585893362807049E-003 -3.741097107964297E-004  2.631858245822394E-005
 -0.224951994744527       0.112343328682423       0.286504796860190     
  1.379386374572028E-003 -3.396330541633916E-004  2.478760133433377E-005
 -0.224951994744527       0.224951994744527       0.135335283236613     
  9.068918954978018E-004 -2.539119301458908E-004  2.069699607916335E-005
 -0.224951994744527       0.337641464801303       3.877420783172201E-002
  4.507336615430224E-004 -1.562814381858266E-004  1.531700602437417E-005
 -0.224951994744527       0.449536557024029       6.737946999085478E-003
  1.706134617493954E-004 -7.963812365880333E-005  1.008186684064014E-005
 -0.224951994744527       0.560523029461074       7.101743888425491E-004
  4.942882655003766E-005 -3.375844109334527E-005  5.919664791193004E-006
 -0.224951994744527       0.675337414025638       4.539992976248477E-005
  1.025367625371498E-005 -1.138179172019574E-005  3.012235631897469E-006
 -0.224951994744527       0.798443291855323       1.760346312156169E-006
  1.378577454687930E-006 -2.826715447850842E-006  1.247626952586088E-006
 -0.224951994744527       0.904141431802467       4.139937718785167E-008
  1.819840524050754E-007 -6.741859154964224E-007  4.547555927636921E-007
 -0.224951994744527       0.975060457533844       5.905303998944061E-010
  3.133730056391566E-008 -1.377250675063686E-007  1.087237639620019E-007
 -0.224951994744527        1.00000000000000       0.000000000000000E+000
  0.000000000000000E+000  0.000000000000000E+000  0.000000000000000E+000
 -0.112343328682423       -1.00000000000000       0.000000000000000E+000
  0.000000000000000E+000  0.000000000000000E+000  0.000000000000000E+000
 -0.112343328682423      -0.975060457533844       1.250152866386743E-009
  1.835752652471290E-007  2.637580315211295E-007  3.629173611729542E-007
 -0.112343328682423      -0.904141431802467       8.764248219443636E-008
  1.066070465835296E-006  1.291137141354224E-006  1.517963448606349E-006
 -0.112343328682423      -0.798443291855323       3.726653172078671E-006
  8.075766512030228E-006  5.413458245777782E-006  4.164549356398845E-006
 -0.112343328682423      -0.675337414025638       9.611165206139469E-005
  6.006648033938389E-005  2.179733170883713E-005  1.005477152899802E-005
 -0.112343328682423      -0.560523029461074       1.503439192977573E-003
  2.895562106229668E-004  6.465097560336339E-005  1.975970152745239E-005
 -0.112343328682423      -0.449536557024029       1.426423390899925E-002
  9.994610610438667E-004  1.525154072700482E-004  3.365303386451658E-005
 -0.112343328682423      -0.337641464801303       8.208499862389876E-002
  2.640417340161890E-003  2.992954392798137E-004  5.112780507932269E-005
 -0.112343328682423      -0.224951994744527       0.286504796860190     
  5.312612050794192E-003  4.862681299829699E-004  6.908608510013833E-005
 -0.112343328682423      -0.112343328682423       0.606530659712634     
  8.080505186990859E-003  6.504331248648685E-004  8.274042905189687E-005
 -0.112343328682423      -8.129045590449418E-018  0.778800783071405     
  9.290232072356916E-003  7.164595591371735E-004  8.785080796921232E-005
 -0.112343328682423       0.112343328682423       0.606530659712633     
  8.080505186990855E-003  6.504331248648681E-004  8.274042905189686E-005
 -0.112343328682423       0.224951994744527       0.286504796860190     
  5.312612050794192E-003  4.862681299829702E-004  6.908608510013837E-005
 -0.112343328682423       0.337641464801303       8.208499862389876E-002
  2.640417340161894E-003  2.992954392798143E-004  5.112780507932280E-005
 -0.112343328682423       0.449536557024029       1.426423390899928E-002
  9.994610610438704E-004  1.525154072700489E-004  3.365303386451673E-005
 -0.112343328682423       0.560523029461074       1.503439192977573E-003