 VARIABLES = "x1", "x2"
 ZONE I=         201 F=POINT
   1.2353514731093871        1.2141382696737908     
   1.2563756099853527        1.2363269789677249     
   1.2761598558183282        1.2572955827969832     
   1.2946846859462577        1.2770233876811556     
   1.3119318185983346        1.2954909246585891     
   1.3278842329369029        1.3126799684998991     
   1.3425261858549689        1.3285735556940730     
   1.3558432275127466        1.3431560011894061     
   1.3678222155979058        1.3564129138727545     
   1.3784513282954474        1.3683312107718264     
   1.3877200759544068        1.3788991299664952     
   1.3956193114398747        1.3881062421963966     
   1.4021412391601127        1.3959434611533479     
   1.4072794227598631        1.4024030524484374     
   1.4110287914722530        1.4074786412449325     
   1.4133856451230302        1.4111652185494745     
   1.4143476577821883        1.4134591461553498     
   1.4139138800593773        1.4143581602329607     
   1.4120847400408389        1.4138613735639514     
   1.4088620428669372        1.4119692764167868     
   1.4042489689507014        1.4086837360629154     
   1.3982500708391437        1.4040079949339985     
   1.3908712687204448        1.3979466674220211     
   1.3821198445814422        1.3905057353254451     
   1.3720044350211886        1.3816925419458943     
   1.3605350227276722        1.3715157848412054     
   1.3477229266261073        1.3599855072419855     
   1.3335807907085231        1.3471130881401578     
   1.3181225715556697        1.3329112310592699     
   1.3013635245635573        1.3173939515176496     
   1.2833201888882235        1.3005765631967807     
   1.2640103711235808        1.2824756628285481     
   1.2434531277284608        1.2631091138162667     
   1.2216687462201878        1.2424960286056599     
   1.1986787251532509        1.2206567498231828     
   1.1745057529028244        1.1976128302003060     
   1.1491736852740804        1.1733870113035703     
   1.1227075219593912        1.1480032010914087     
   1.0951333818666502        1.1214864503198763     
   1.0664784773430622        1.0938629278205780     
   1.0367710873198432        1.0651598946751923     
   1.0060405294043302        1.0354056773120750     
  0.97431713094703987        1.0046296395514929     
  0.94163219911223794       0.97286215362707984     
  0.90801798998154526       0.94013457021210800     
  0.87350767672108109       0.90647918748015910     
  0.83813531684355336       0.87192921923072597     
  0.80193581859760343       0.83651876211120180     
  0.76494490651758329       0.80028276196760884     
  0.72719908616774753       0.76325697935726222     
  0.68873560811567380       0.72547795425742156     
  0.64959243117044774       0.68698297000474406     
  0.60980818492190092       0.64781001650113068     
  0.56942213161787070       0.60799775272228196     
  0.52847412741710098       0.56758546856595493     
  0.48700458305602484       0.52661304607757697     
  0.44505442396824840       0.48512092009148405     
  0.40266504989608715       0.44315003832661953     
  0.35987829403401866       0.40074182097607863     
  0.31673638174437213       0.35793811983038126     
  0.27328188888599070       0.31478117697480429     
  0.22955769979700050       0.27131358310154458     
  0.18560696497314824       0.22757823547785017     
  0.14147305848346725       0.18361829561159176     
   9.7199535165312698E-002  0.13947714665607050     
   5.2830087640992465E-002   9.5198350596080047E-002
   8.4085031984237873E-003   5.0825605257486861E-002
  -3.6021379421630327E-002   6.4027011827547334E-003
  -8.0415713289109569E-002  -3.8026521585037727E-002
 -0.12473068655627868       -8.2418216767022850E-002
 -0.16892256569473518      -0.12672857511953095     
 -0.21294773865512001      -0.17091386766852290     
 -0.25676275790694364      -0.21493048886480670     
 -0.30032438331605660      -0.25873499961745333     
 -0.34358962481743927      -0.30228417016293307     
 -0.38651578484120502      -0.34553502272767189     
 -0.42906050044994837      -0.38844487394192706     
 -0.47118178514585041      -0.43097137696312027     
 -0.51283807030627904      -0.47307256326705505     
 -0.55398824620700660      -0.51470688406578857     
 -0.59459170259253857      -0.55583325131126360     
 -0.63460836875353832      -0.59641107824425654     
 -0.67399875307177493      -0.63640031944860409     
 -0.71272398199358644      -0.67576151037119891     
 -0.75074583839337827      -0.71445580626873195     
 -0.78802679928931940      -0.75244502054277251     
 -0.82453007287399049      -0.78969166242532585     
 -0.86021963482345687      -0.82615897397769500     
 -0.89506026384892845      -0.86181096636613064     
 -0.92901757645591598      -0.89661245537846157     
 -0.96205806087659240      -0.93052909614666701     
 -0.99414911014186103      -0.96352741704111511     
  -1.0252590542604962      -0.99557485270301838     
  -1.0553571914736024       -1.0266397761825128     
  -1.0844138185535421       -1.0566915301506374     
  -1.1124002601174356       -1.0857004571544173     
  -1.1392888969263046       -1.1136379288851905     
  -1.1650531931419230       -1.1404763744312911     
  -1.1896677225144865       -1.1661893074872089     
  -1.2131081934752534       -1.1907513524923785     
  -1.2353514731093869       -1.2141382696737908     
  -1.2563756099853525       -1.2363269789677247     
  -1.2761598558183282       -1.2572955827969832     
  -1.2946846859462575       -1.2770233876811554     
  -1.3119318185983346       -1.2954909246585891     
  -1.3278842329369029       -1.3126799684998991     
  -1.3425261858549689       -1.3285735556940730     
  -1.3558432275127466       -1.3431560011894061     
  -1.3678222155979058       -1.3564129138727545     
  -1.3784513282954471       -1.3683312107718262     
  -1.3877200759544071       -1.3788991299664952     
  -1.3956193114398747       -1.3881062421963968     
  -1.4021412391601127       -1.3959434611533479     
  -1.4072794227598631       -1.4024030524484374     
  -1.4110287914722530       -1.4074786412449325     
  -1.4133856451230302       -1.4111652185494745     
  -1.4143476577821881       -1.4134591461553496     
  -1.4139138800593771       -1.4143581602329605     
  -1.4120847400408389       -1.4138613735639514     
  -1.4088620428669369       -1.4119692764167866     
  -1.4042489689507014       -1.4086837360629156     
  -1.3982500708391439       -1.4040079949339987     
  -1.3908712687204448       -1.3979466674220211     
  -1.3821198445814422       -1.3905057353254451     
  -1.3720044350211889       -1.3816925419458945     
  -1.3605350227276722       -1.3715157848412054     
  -1.3477229266261070       -1.3599855072419855     
  -1.3335807907085231       -1.3471130881401578     
  -1.3181225715556695       -1.3329112310592697     
  -1.3013635245635575       -1.3173939515176496     
  -1.2833201888882235       -1.3005765631967807     
  -1.2640103711235811       -1.2824756628285481     
  -1.2434531277284604       -1.2631091138162664     
  -1.2216687462201878       -1.2424960286056597     
  -1.1986787251532511       -1.2206567498231831     
  -1.1745057529028244       -1.1976128302003060     
  -1.1491736852740799       -1.1733870113035698     
  -1.1227075219593909       -1.1480032010914083     
  -1.0951333818666500       -1.1214864503198760     
  -1.0664784773430620       -1.0938629278205778     
  -1.0367710873198432       -1.0651598946751923     
  -1.0060405294043304       -1.0354056773120752     
 -0.97431713094703953       -1.0046296395514924     
 -0.94163219911223772      -0.97286215362707962     
 -0.90801798998154526      -0.94013457021210800     
 -0.87350767672108109      -0.90647918748015910     
 -0.83813531684355347      -0.87192921923072608     
 -0.80193581859760321      -0.83651876211120146     
 -0.76494490651758273      -0.80028276196760839     
 -0.72719908616774742      -0.76325697935726200     
 -0.68873560811567391      -0.72547795425742168     
 -0.64959243117044818      -0.68698297000474440     
 -0.60980818492190170      -0.64781001650113146     
 -0.56942213161787059      -0.60799775272228185     
 -0.52847412741710087      -0.56758546856595482     
 -0.48700458305602501      -0.52661304607757708     
 -0.44505442396824879      -0.48512092009148444     
 -0.40266504989608770      -0.44315003832662009     
 -0.35987829403401855      -0.40074182097607852     
 -0.31673638174437202      -0.35793811983038121     
 -0.27328188888599064      -0.31478117697480423     
 -0.22955769979700097      -0.27131358310154507     
 -0.18560696497314871      -0.22757823547785064     
 -0.14147305848346833      -0.18361829561159287     
  -9.7199535165314196E-002 -0.13947714665607197     
  -5.2830087640993957E-002  -9.5198350596081546E-002
  -8.4085031984233172E-003  -5.0825605257486389E-002
   3.6021379421630792E-002  -6.4027011827542590E-003
   8.0415713289109569E-002   3.8026521585037727E-002
  0.12473068655627868        8.2418216767022850E-002
  0.16892256569473496       0.12672857511953073     
  0.21294773865511915       0.17091386766852204     
  0.25676275790694292       0.21493048886480598     
  0.30032438331605571       0.25873499961745244     
  0.34358962481743793       0.30228417016293174     
  0.38651578484120352       0.34553502272767039     
  0.42906050044994815       0.38844487394192678     
  0.47118178514585063       0.43097137696312049     
  0.51283807030627937       0.47307256326705538     
  0.55398824620700637       0.51470688406578835     
  0.59459170259253846       0.55583325131126349     
  0.63460836875353810       0.59641107824425632     
  0.67399875307177470       0.63640031944860387     
  0.71272398199358511       0.67576151037119747     
  0.75074583839337727       0.71445580626873084     
  0.78802679928931940       0.75244502054277251     
  0.82453007287399038       0.78969166242532574     
  0.86021963482345776       0.82615897397769600     
  0.89506026384892878       0.86181096636613097     
  0.92901757645591587       0.89661245537846135     
  0.96205806087659240       0.93052909614666701     
  0.99414911014186080       0.96352741704111489     
   1.0252590542604962       0.99557485270301838     
   1.0553571914736017        1.0266397761825121     
   1.0844138185535419        1.0566915301506372     
   1.1124002601174356        1.0857004571544171     
   1.1392888969263044        1.1136379288851905     
   1.1650531931419226        1.1404763744312907     
   1.1896677225144869        1.1661893074872092     
   1.2131081934752534        1.1907513524923785     
   1.2353514731093869        1.2141382696737908     
