 VARIABLES = "y21", "y22"
 ZONE I=         201 F=POINT
   1.5000000000000003E-002   1.7320508075688772     
   1.4176522946071623E-002   1.7626069041299843     
   1.3339055375547828E-002   1.7914235204788258     
   1.2488423767812038E-002   1.8184722180941371     
   1.1625467593563093E-002   1.8437263031770010     
   1.0751038486359013E-002   1.8671608529944035     
   9.8659994021575020E-003   1.8887527404749620     
   8.9712237676826036E-003   1.9084806570325537     
   8.0675946184579749E-003   1.9263251335953162     
   7.1560037273574297E-003   1.9422685598192722     
   6.2373507245327845E-003   1.9562952014676112     
   5.3125422095875027E-003   1.9683912159384838     
   4.3824908568723545E-003   1.9785446659259767     
   3.4481145147860020E-003   1.9867455312007929     
   2.5103352999694688E-003   1.9929857184990087     
   1.5700786872883206E-003   1.9972590695091477     
   6.2827259650071149E-004   1.9995613669496910     
  -3.1415352348737006E-004   1.9998903387310245     
  -1.2562696118759858E-003   1.9982456601977168     
  -2.1971459138289458E-003   1.9946289544489164     
  -3.1358538980295995E-003   1.9890437907365468     
  -4.0714671730291280E-003   1.9814956809428872     
  -5.0030624014830620E-003   1.9719920741410097     
  -5.9297202113737782E-003   1.9605423492434439     
  -6.8505261033196671E-003   1.9471578057463206     
  -7.7645713530756170E-003   1.9318516525781368     
  -8.6709539083341444E-003   1.9146389950641347     
  -9.5687792789420929E-003   1.8955368200191716     
  -1.0457161419654450E-002   1.8745639789837831     
  -1.1335223604554008E-002   1.8517411696199895     
  -1.2202099292273999E-002   1.8270909152852020     
  -1.3056932981169818E-002   1.8006375428043873     
  -1.3898881053595848E-002   1.7724071584624297     
  -1.4727112608454222E-002   1.7424276222403789     
  -1.5540810281193905E-002   1.7107285203210132     
  -1.6339171050450810E-002   1.6773411358908483     
  -1.7121407030532946E-002   1.6422984182674083     
  -1.7886746248968469E-002   1.6056349503822291     
  -1.8634433408349305E-002   1.5673869146516799     
  -1.9363730631718510E-002   1.5275920572692847     
  -2.0073918190765743E-002   1.4862896509547887     
  -2.0764295216112196E-002   1.4435204561967248     
  -2.1434180388984096E-002   1.3993266810267309     
  -2.2082912613592021E-002   1.3537519393653217     
  -2.2709851669552687E-002   1.3068412079802112     
  -2.3314378843709124E-002   1.2586407820996752     
  -2.3895897540725880E-002   1.2091982297247503     
  -2.4453833871856626E-002   1.1585623446853577     
  -2.4987637221302979E-002   1.1067830984866887     
  -2.5496780789605916E-002   1.0539115909933556     
  -2.5980762113533156E-002   1.0000000000000002     
  -2.6439103561949763E-002  0.94510152973810835     
  -2.6871352807182381E-002  0.88927035836985513     
  -2.7277083271412057E-002  0.83256158452080242     
  -2.7655894547655015E-002  0.77503117290420642     
  -2.8007412794916052E-002  0.71673589909060087     
  -2.8331291107124429E-002  0.65773329347716680     
  -2.8627209855488302E-002  0.59808158451217386     
  -2.8894877003929741E-002  0.53783964123053152     
  -2.9134028397289079E-002  0.47706691515716215     
  -2.9344428022014167E-002  0.41582338163551946     
  -2.9525868239077255E-002  0.35416948063916687     
  -2.9678169988889645E-002  0.29216605712482391     
  -2.9801182968011892E-002  0.22987430098573333     
  -2.9894785777485128E-002  0.16735568666463094     
  -2.9958886042637217E-002  0.10467191248588800     
  -2.9993420504245364E-002   4.1884839766713838E-002
  -2.9998355080965364E-002  -2.0943568232491359E-002
  -2.9973684902965751E-002  -8.3751307458399343E-002
  -2.9919434316733742E-002 -0.14647639425526307     
  -2.9835656861048197E-002 -0.20905692653530644     
  -2.9722435214143306E-002 -0.27143114486860881     
  -2.9579881112115146E-002 -0.33353749343220424     
  -2.9408135238651656E-002 -0.39531468075825166     
  -2.9207367086194806E-002 -0.45670174022131121     
  -2.8977774788672049E-002 -0.51763809020504126     
  -2.8719584925962018E-002 -0.57806359388894246     
  -2.8433052300287576E-002 -0.63791861859613985     
  -2.8118459684756750E-002 -0.69714409464363003     
  -2.7776117544299841E-002 -0.75568157363693433     
  -2.7406363729278033E-002 -0.81347328615159986     
  -2.7009563142065811E-002 -0.87046219874465447     
  -2.6586107376936449E-002 -0.92659207023972245     
  -2.6136414333605681E-002 -0.98180750723028198     
  -2.5660927804815201E-002  -1.0360540187462604     
  -2.5160117038362725E-002  -1.0892780700300537     
  -2.4634476274011125E-002  -1.1414271353688628     
  -2.4084524255733448E-002  -1.1924497499312305     
  -2.3510803719775202E-002  -1.2422955605566204     
  -2.2913880859039268E-002  -1.2909153754479010     
  -2.2294344764321829E-002  -1.3382612127177160     
  -2.1652806842950872E-002  -1.3842863477408129     
  -2.0989900215400974E-002  -1.4289453592656058     
  -2.0306279090479828E-002  -1.4721941742394682     
  -1.9602618119703163E-002  -1.5139901113035128     
  -1.8879611731495129E-002  -1.5542919229139414     
  -1.8137973445871255E-002  -1.5930598360483921     
  -1.7378435170280367E-002  -1.6302555914571084     
  -1.6601746477300328E-002  -1.6658424814201986     
  -1.5808673864900327E-002  -1.6997853859737277     
  -1.5000000000000006E-002  -1.7320508075688770     
  -1.4176522946071631E-002  -1.7626069041299841     
  -1.3339055375547828E-002  -1.7914235204788258     
  -1.2488423767812043E-002  -1.8184722180941368     
  -1.1625467593563093E-002  -1.8437263031770010     
  -1.0751038486359017E-002  -1.8671608529944033     
  -9.8659994021574968E-003  -1.8887527404749620     
  -8.9712237676826036E-003  -1.9084806570325537     
  -8.0675946184579801E-003  -1.9263251335953162     
  -7.1560037273574410E-003  -1.9422685598192719     
  -6.2373507245327879E-003  -1.9562952014676114     
  -5.3125422095874992E-003  -1.9683912159384840     
  -4.3824908568723545E-003  -1.9785446659259767     
  -3.4481145147860093E-003  -1.9867455312007929     
  -2.5103352999694809E-003  -1.9929857184990087     
  -1.5700786872883084E-003  -1.9972590695091477     
  -6.2827259650070834E-004  -1.9995613669496908     
   3.1415352348736713E-004  -1.9998903387310243     
   1.2562696118759782E-003  -1.9982456601977168     
   2.1971459138289337E-003  -1.9946289544489162     
   3.1358538980295831E-003  -1.9890437907365470     
   4.0714671730291314E-003  -1.9814956809428874     
   5.0030624014830620E-003  -1.9719920741410097     
   5.9297202113737738E-003  -1.9605423492434437     
   6.8505261033196584E-003  -1.9471578057463208     
   7.7645713530756040E-003  -1.9318516525781368     
   8.6709539083341461E-003  -1.9146389950641347     
   9.5687792789420929E-003  -1.8955368200191716     
   1.0457161419654460E-002  -1.8745639789837829     
   1.1335223604554011E-002  -1.8517411696199897     
   1.2202099292273999E-002  -1.8270909152852020     
   1.3056932981169812E-002  -1.8006375428043875     
   1.3898881053595859E-002  -1.7724071584624292     
   1.4727112608454227E-002  -1.7424276222403787     
   1.5540810281193902E-002  -1.7107285203210134     
   1.6339171050450806E-002  -1.6773411358908483     
   1.7121407030532960E-002  -1.6422984182674076     
   1.7886746248968476E-002  -1.6056349503822287     
   1.8634433408349312E-002  -1.5673869146516795     
   1.9363730631718513E-002  -1.5275920572692845     
   2.0073918190765740E-002  -1.4862896509547887     
   2.0764295216112193E-002  -1.4435204561967250     
   2.1434180388984102E-002  -1.3993266810267304     
   2.2082912613592028E-002  -1.3537519393653215     
   2.2709851669552691E-002  -1.3068412079802112     
   2.3314378843709120E-002  -1.2586407820996752     
   2.3895897540725880E-002  -1.2091982297247506     
   2.4453833871856630E-002  -1.1585623446853572     
   2.4987637221302986E-002  -1.1067830984866880     
   2.5496780789605916E-002  -1.0539115909933554     
   2.5980762113533153E-002  -1.0000000000000004     
   2.6439103561949760E-002 -0.94510152973810890     
   2.6871352807182378E-002 -0.88927035836985613     
   2.7277083271412057E-002 -0.83256158452080231     
   2.7655894547655015E-002 -0.77503117290420620     
   2.8007412794916049E-002 -0.71673589909060109     
   2.8331291107124425E-002 -0.65773329347716736     
   2.8627209855488299E-002 -0.59808158451217464     
   2.8894877003929745E-002 -0.53783964123053130     
   2.9134028397289079E-002 -0.47706691515716204     
   2.9344428022014167E-002 -0.41582338163551935     
   2.9525868239077251E-002 -0.35416948063916753     
   2.9678169988889645E-002 -0.29216605712482457     
   2.9801182968011888E-002 -0.22987430098573489     
   2.9894785777485125E-002 -0.16735568666463305     
   2.9958886042637214E-002 -0.10467191248589011     
   2.9993420504245364E-002  -4.1884839766713172E-002
   2.9998355080965360E-002   2.0943568232492025E-002
   2.9973684902965751E-002   8.3751307458399343E-002
   2.9919434316733742E-002  0.14647639425526307     
   2.9835656861048200E-002  0.20905692653530611     
   2.9722435214143309E-002  0.27143114486860759     
   2.9579881112115153E-002  0.33353749343220324     
   2.9408135238651659E-002  0.39531468075825044     
   2.9207367086194810E-002  0.45670174022130933     
   2.8977774788672059E-002  0.51763809020503915     
   2.8719584925962018E-002  0.57806359388894213     
   2.8433052300287569E-002  0.63791861859614019     
   2.8118459684756746E-002  0.69714409464363047     
   2.7776117544299844E-002  0.75568157363693400     
   2.7406363729278033E-002  0.81347328615159975     
   2.7009563142065811E-002  0.87046219874465414     
   2.6586107376936452E-002  0.92659207023972212     
   2.6136414333605695E-002  0.98180750723027999     
   2.5660927804815215E-002   1.0360540187462588     
   2.5160117038362729E-002   1.0892780700300537     
   2.4634476274011129E-002   1.1414271353688625     
   2.4084524255733434E-002   1.1924497499312319     
   2.3510803719775195E-002   1.2422955605566208     
   2.2913880859039271E-002   1.2909153754479008     
   2.2294344764321832E-002   1.3382612127177160     
   2.1652806842950876E-002   1.3842863477408127     
   2.0989900215400974E-002   1.4289453592656058     
   2.0306279090479842E-002   1.4721941742394673     
   1.9602618119703166E-002   1.5139901113035126     
   1.8879611731495129E-002   1.5542919229139411     
   1.8137973445871258E-002   1.5930598360483919     
   1.7378435170280381E-002   1.6302555914571077     
   1.6601746477300321E-002   1.6658424814201991     
   1.5808673864900331E-002   1.6997853859737277     
   1.5000000000000010E-002   1.7320508075688770     
