 VARIABLES = "x1", "x2"
 ZONE I=           3 F=POINT
   1.5000000000000003E-002   1.7320508075688772     
   0.0000000000000000        0.0000000000000000     
  -2.5980762113533156E-002   1.0000000000000002     
