 VARIABLES = "x1", "x2"
 ZONE I=           3 F=POINT
   1.2353514731093871        1.2141382696737908     
   0.0000000000000000        0.0000000000000000     
  0.68873560811567380       0.72547795425742156     
