 VARIABLES =  $x$  t=  0.9  $x$2  t=  1.2  $x$3  t=  1.5
 ZONE I=          21 ,DATAPACKING=POINT
 -0.100000000000000E+01  0.138879438649640E-10 -0.100000000000000E+01  0.138879438649640E-10 -0.100000000000000E+01  0.138879438649640E-10 -0.100000000000000E+01  0.138879438649640E-10 -0.100000000000000E+01  0.138879438649640E-10
 -0.955162973124140E+00 -0.115104940686234E-05 -0.955162973124140E+00 -0.374332230510089E-09 -0.955162973124140E+00  0.301485433754166E-06 -0.955162973124140E+00  0.158120190946843E-06 -0.955162973124140E+00  0.458605673139066E-06
 -0.848039647510822E+00  0.189255451762278E-05 -0.848039647510822E+00 -0.205425888373335E-06 -0.848039647510822E+00 -0.512213164960781E-06 -0.848039647510822E+00 -0.224554829500546E-06 -0.848039647510822E+00 -0.763890872561734E-06
 -0.741262543272473E+00 -0.574317937855256E-05 -0.741262543272473E+00  0.227157411377742E-05 -0.741262543272473E+00  0.159487375377527E-05 -0.741262543272473E+00  0.101228779769215E-05 -0.741262543272473E+00  0.412988401963567E-05
 -0.635605065171759E+00 -0.329752365204023E-05 -0.635605065171759E+00 -0.755828596698761E-05 -0.635605065171759E+00  0.284490745934253E-06 -0.635605065171759E+00 -0.232602878931795E-05 -0.635605065171759E+00 -0.940716899371351E-05
 -0.529610856542781E+00  0.251780602483887E-04 -0.529610856542781E+00  0.172758731350285E-05 -0.529610856542781E+00 -0.295153644534583E-05 -0.529610856542781E+00  0.109838961632072E-04 -0.529610856542781E+00  0.235113399098735E-04
 -0.423704436434061E+00 -0.215042904072942E-04 -0.423704436434061E+00  0.156384563616148E-04 -0.423704436434061E+00 -0.680974703756724E-05 -0.423704436434061E+00 -0.309572967102557E-04 -0.423704436434061E+00 -0.502853413433953E-04
 -0.317774315082929E+00  0.621060229657625E-05 -0.317774315082929E+00 -0.115760370676557E-04 -0.317774315082929E+00  0.384960971194552E-04 -0.317774315082929E+00  0.683677604177266E-04 -0.317774315082929E+00  0.108686210867838E-03
 -0.211850529508475E+00  0.183924190640044E-03 -0.211850529508475E+00 -0.362526497315865E-05 -0.211850529508475E+00 -0.848870321650990E-04 -0.211850529508475E+00 -0.148140310444427E-03 -0.211850529508475E+00 -0.233866837483999E-03
 -0.105925053478478E+00  0.180168410229476E-03 -0.105925053478478E+00  0.225179278756325E-03 -0.105925053478478E+00  0.209070626036921E-03 -0.105925053478478E+00  0.349466757676364E-03 -0.105925053478478E+00  0.483834625497789E-03
 -0.790519978293986E-17  0.682234781166067E-03 -0.790519978293986E-17  0.730724004487336E-05 -0.790519978293986E-17 -0.327181416025496E-03 -0.790519978293986E-17 -0.759530139225385E-03 -0.790519978293986E-17 -0.925231424064832E-03
  0.105925053478478E+00  0.384257891095592E-02  0.105925053478478E+00  0.121970524331384E-02  0.105925053478478E+00  0.131706285439653E-02  0.105925053478478E+00  0.175448190130023E-02  0.105925053478478E+00  0.170606082922605E-02
  0.211850529508475E+00  0.943089395597441E-02  0.211850529508475E+00  0.187569710309282E-02  0.211850529508475E+00 -0.185003953728456E-02  0.211850529508475E+00 -0.303785432406134E-02  0.211850529508475E+00 -0.280002695795929E-02
  0.317774315082929E+00  0.260568991990452E-01  0.317774315082929E+00  0.119672007150134E-01  0.317774315082929E+00  0.825073506993182E-02  0.317774315082929E+00  0.674065717319745E-02  0.317774315082929E+00  0.489430765205882E-02
  0.423704436434061E+00  0.663011789803520E-01  0.423704436434061E+00  0.132871517297788E-01  0.423704436434061E+00 -0.385694220097685E-02  0.423704436434061E+00 -0.842387890323117E-02  0.423704436434061E+00 -0.646115904813257E-02
  0.529610856542781E+00  0.181576932022091E+00  0.529610856542781E+00  0.745745206628880E-01  0.529610856542781E+00  0.400283720974001E-01  0.529610856542781E+00  0.240571130593431E-01  0.529610856542781E+00  0.117385364798389E-01
  0.635605065171759E+00  0.305510509269485E+00  0.635605065171759E+00  0.971787164667898E-01  0.635605065171759E+00  0.555555412977826E-02  0.635605065171759E+00 -0.121398280938497E-01  0.635605065171759E+00 -0.730795585948937E-02
  0.741262543272473E+00  0.545306984322398E+00  0.741262543272473E+00  0.339332614366995E+00  0.741262543272473E+00  0.169942473680757E+00  0.741262543272473E+00  0.716545895719040E-01  0.741262543272473E+00  0.255970461174880E-01
  0.848039647510822E+00  0.411252274939194E+00  0.848039647510822E+00  0.220548055939089E+00  0.848039647510822E+00  0.707563915779156E-01  0.848039647510822E+00  0.141790332642983E-01  0.848039647510822E+00  0.416685398912262E-02
  0.955162973124140E+00  0.538497071417209E+00  0.955162973124140E+00  0.446888715594876E+00  0.955162973124140E+00  0.247035384200951E+00  0.955162973124140E+00  0.955252603495460E-01  0.955162973124140E+00  0.297101417844880E-01
  0.100000000000000E+01  0.138879438649640E-10  0.100000000000000E+01  0.138879438649640E-10  0.100000000000000E+01  0.138879438649640E-10  0.100000000000000E+01  0.138879438649640E-10  0.100000000000000E+01  0.138879438649640E-10
