 VARIABLES =  $x$  t=   0.00  $x$2  t=   0.30  $x$3  t=   0.60
 ZONE I=          21 ,DATAPACKING=POINT
 -0.100000000000000E+01  0.138879438649640E-10 -0.100000000000000E+01  0.138879438649640E-10 -0.100000000000000E+01  0.138879438649640E-10
 -0.955162973124140E+00  0.124289495444211E-09 -0.955162973124140E+00 -0.158689528287632E-05 -0.955162973124140E+00  0.283668131403011E-05
 -0.848039647510822E+00  0.155488198707568E-07 -0.848039647510822E+00  0.247744238718023E-05 -0.848039647510822E+00 -0.454915234020508E-05
 -0.741262543272473E+00  0.108194095261964E-05 -0.741262543272473E+00 -0.696846109509697E-05 -0.741262543272473E+00  0.156926290995438E-04
 -0.635605065171759E+00  0.410859242084811E-04 -0.635605065171759E+00  0.409250083970148E-04 -0.635605065171759E+00  0.827996674986909E-05
 -0.529610856542781E+00  0.900832263972335E-03 -0.529610856542781E+00  0.213797477069426E-03 -0.529610856542781E+00 -0.498361266023729E-04
 -0.423704436434061E+00  0.112415759378883E-01 -0.423704436434061E+00  0.460406074917674E-03 -0.423704436434061E+00  0.207929284498199E-03
 -0.317774315082929E+00  0.800973200387849E-01 -0.317774315082929E+00  0.439598933674070E-02 -0.317774315082929E+00  0.157263775290975E-03
 -0.211850529508475E+00  0.325622621366573E+00 -0.211850529508475E+00  0.139297121597458E-01 -0.211850529508475E+00  0.611033294879592E-03
 -0.105925053478478E+00  0.755403735343880E+00 -0.105925053478478E+00  0.482250989766705E-01 -0.105925053478478E+00  0.468169167242543E-02
 -0.790519978293986E-17  0.100000000000000E+01 -0.790519978293986E-17  0.184699429887715E+00 -0.790519978293986E-17  0.122564548822415E-01
  0.105925053478478E+00  0.755403735343880E+00  0.105925053478478E+00  0.457773919776776E+00  0.105925053478478E+00  0.337799565791590E-01
  0.211850529508475E+00  0.325622621366573E+00  0.211850529508475E+00  0.721716282878112E+00  0.211850529508475E+00  0.110477098046666E+00
  0.317774315082929E+00  0.800973200387849E-01  0.317774315082929E+00  0.776954559047013E+00  0.317774315082929E+00  0.277745620502858E+00
  0.423704436434061E+00  0.112415759378883E-01  0.423704436434061E+00  0.601058174877158E+00  0.423704436434061E+00  0.494454674466629E+00
  0.529610856542781E+00  0.900832263972335E-03  0.529610856542781E+00  0.343056217285860E+00  0.529610856542781E+00  0.649272518468722E+00
  0.635605065171759E+00  0.410859242084811E-04  0.635605065171759E+00  0.144359553198515E+00  0.635605065171759E+00  0.652291590734623E+00
  0.741262543272473E+00  0.108194095261964E-05  0.741262543272473E+00  0.431641181317353E-01  0.741262543272473E+00  0.524307726966800E+00
  0.848039647510822E+00  0.155488198707568E-07  0.848039647510822E+00  0.740240692369170E-02  0.848039647510822E+00  0.305636396575706E+00
  0.955162973124140E+00  0.124289495444211E-09  0.955162973124140E+00  0.149844210840084E-03  0.955162973124140E+00  0.171735496148398E+00
  0.100000000000000E+01  0.138879438649640E-10  0.100000000000000E+01  0.138879438649640E-10  0.100000000000000E+01  0.138879438649640E-10
