 VARIABLES =  $x$  (d)
 ZONE I=         441 ,DATAPACKING=POINT
 -0.100000000000000E+01 -0.100000000000000E+01  0.150000000000006E-36
 -0.100000000000000E+01 -0.975060457533844E+00  0.150000000000006E-36
 -0.100000000000000E+01 -0.904141431802467E+00  0.150000000000006E-36
 -0.100000000000000E+01 -0.798443291855323E+00  0.150000000000006E-36
 -0.100000000000000E+01 -0.675337414025638E+00  0.150000000000006E-36
 -0.100000000000000E+01 -0.560523029461074E+00  0.150000000000006E-36
 -0.100000000000000E+01 -0.449536557024029E+00  0.150000000000006E-36
 -0.100000000000000E+01 -0.337641464801303E+00  0.150000000000006E-36
 -0.100000000000000E+01 -0.224951994744527E+00  0.150000000000006E-36
 -0.100000000000000E+01 -0.112343328682423E+00  0.150000000000006E-36
 -0.100000000000000E+01  0.414186545644071E-17  0.150000000000006E-36
 -0.100000000000000E+01  0.112343328682423E+00  0.150000000000006E-36
 -0.100000000000000E+01  0.224951994744527E+00  0.150000000000006E-36
 -0.100000000000000E+01  0.337641464801303E+00  0.150000000000006E-36
 -0.100000000000000E+01  0.449536557024029E+00  0.150000000000006E-36
 -0.100000000000000E+01  0.560523029461074E+00  0.150000000000006E-36
 -0.100000000000000E+01  0.675337414025638E+00  0.150000000000006E-36
 -0.100000000000000E+01  0.798443291855323E+00  0.150000000000006E-36
 -0.100000000000000E+01  0.904141431802467E+00  0.150000000000006E-36
 -0.100000000000000E+01  0.975060457533844E+00  0.150000000000006E-36
 -0.100000000000000E+01  0.100000000000000E+01  0.150000000000006E-36
 -0.975060457533844E+00 -0.100000000000000E+01  0.150000000000006E-36
 -0.975060457533844E+00 -0.975060457533844E+00 -0.334683852903004E-11
 -0.975060457533844E+00 -0.904141431802467E+00 -0.150738445637757E-10
 -0.975060457533844E+00 -0.798443291855323E+00 -0.507605257756402E-10
 -0.975060457533844E+00 -0.675337414025638E+00 -0.158776708056406E-09
 -0.975060457533844E+00 -0.560523029461074E+00 -0.385515062014959E-09
 -0.975060457533844E+00 -0.449536557024029E+00 -0.776728493983275E-09
 -0.975060457533844E+00 -0.337641464801303E+00 -0.134681784760803E-08
 -0.975060457533844E+00 -0.224951994744527E+00 -0.200167875998733E-08
 -0.975060457533844E+00 -0.112343328682423E+00 -0.253814215233112E-08
 -0.975060457533844E+00  0.414186545644071E-17 -0.274654694468489E-08
 -0.975060457533844E+00  0.112343328682423E+00 -0.253814215232869E-08
 -0.975060457533844E+00  0.224951994744527E+00 -0.200167875998451E-08
 -0.975060457533844E+00  0.337641464801303E+00 -0.134681784760604E-08
 -0.975060457533844E+00  0.449536557024029E+00 -0.776728493982358E-09
 -0.975060457533844E+00  0.560523029461074E+00 -0.385515062014655E-09
 -0.975060457533844E+00  0.675337414025638E+00 -0.158776708056366E-09
 -0.975060457533844E+00  0.798443291855323E+00 -0.507605257756628E-10
 -0.975060457533844E+00  0.904141431802467E+00 -0.150738445637877E-10
 -0.975060457533844E+00  0.975060457533844E+00 -0.334683852903286E-11
 -0.975060457533844E+00  0.100000000000000E+01  0.150000000000006E-36
 -0.904141431802467E+00 -0.100000000000000E+01  0.150000000000006E-36
 -0.904141431802467E+00 -0.975060457533844E+00  0.315466372033080E-10
 -0.904141431802467E+00 -0.904141431802467E+00  0.142083074116144E-09
 -0.904141431802467E+00 -0.798443291855323E+00  0.478458667822193E-09
 -0.904141431802467E+00 -0.675337414025638E+00  0.149659783068865E-08
 -0.904141431802467E+00 -0.560523029461074E+00  0.363378870764554E-08
 -0.904141431802467E+00 -0.449536557024029E+00  0.732128915528578E-08
 -0.904141431802467E+00 -0.337641464801303E+00  0.126948386874608E-07
 -0.904141431802467E+00 -0.224951994744527E+00  0.188674281883085E-07
 -0.904141431802467E+00 -0.112343328682423E+00  0.239240260800406E-07
 -0.904141431802467E+00  0.414186545644071E-17  0.258884084583748E-07
 -0.904141431802467E+00  0.112343328682423E+00  0.239240260800265E-07
 -0.904141431802467E+00  0.224951994744527E+00  0.188674281882913E-07
 -0.904141431802467E+00  0.337641464801303E+00  0.126948386874478E-07
 -0.904141431802467E+00  0.449536557024029E+00  0.732128915527894E-08
 -0.904141431802467E+00  0.560523029461074E+00  0.363378870764271E-08
 -0.904141431802467E+00  0.675337414025638E+00  0.149659783068776E-08
 -0.904141431802467E+00  0.798443291855323E+00  0.478458667821984E-09
 -0.904141431802467E+00  0.904141431802467E+00  0.142083074116086E-09
 -0.904141431802467E+00  0.975060457533844E+00  0.315466372032940E-10
 -0.904141431802467E+00  0.100000000000000E+01  0.150000000000006E-36
 -0.798443291855323E+00 -0.100000000000000E+01  0.150000000000006E-36
 -0.798443291855323E+00 -0.975060457533844E+00 -0.271441427659403E-10
 -0.798443291855323E+00 -0.904141431802467E+00 -0.122254654801427E-09
 -0.798443291855323E+00 -0.798443291855323E+00 -0.411687312824334E-09
 -0.798443291855323E+00 -0.675337414025638E+00 -0.128773993849008E-08
 -0.798443291855323E+00 -0.560523029461074E+00 -0.312667486668418E-08
 -0.798443291855323E+00 -0.449536557024029E+00 -0.629956569845803E-08
 -0.798443291855323E+00 -0.337641464801303E+00 -0.109232087930948E-07
 -0.798443291855323E+00 -0.224951994744527E+00 -0.162343817096347E-07
 -0.798443291855323E+00 -0.112343328682423E+00 -0.205853053726961E-07
 -0.798443291855323E+00  0.414186545644071E-17 -0.222755480908488E-07
 -0.798443291855323E+00  0.112343328682423E+00 -0.205853053726851E-07
 -0.798443291855323E+00  0.224951994744527E+00 -0.162343817096225E-07
 -0.798443291855323E+00  0.337641464801303E+00 -0.109232087930868E-07
 -0.798443291855323E+00  0.449536557024029E+00 -0.629956569845498E-08
 -0.798443291855323E+00  0.560523029461074E+00 -0.312667486668368E-08
 -0.798443291855323E+00  0.675337414025638E+00 -0.128773993849042E-08
 -0.798443291855323E+00  0.798443291855323E+00 -0.411687312824653E-09
 -0.798443291855323E+00  0.904141431802467E+00 -0.122254654801555E-09
 -0.798443291855323E+00  0.975060457533844E+00 -0.271441427659701E-10
 -0.798443291855323E+00  0.100000000000000E+01  0.150000000000006E-36
 -0.675337414025638E+00 -0.100000000000000E+01  0.150000000000006E-36
 -0.675337414025638E+00 -0.975060457533844E+00  0.733479846778820E-11
 -0.675337414025638E+00 -0.904141431802467E+00  0.330352390520035E-10
 -0.675337414025638E+00 -0.798443291855323E+00  0.111244749156164E-09
 -0.675337414025638E+00 -0.675337414025638E+00  0.347968706088596E-09
 -0.675337414025638E+00 -0.560523029461074E+00  0.844879424714424E-09
 -0.675337414025638E+00 -0.449536557024029E+00  0.170224713441015E-08
 -0.675337414025638E+00 -0.337641464801303E+00  0.295163213753201E-08
 -0.675337414025638E+00 -0.224951994744527E+00  0.438679907639517E-08
 -0.675337414025638E+00 -0.112343328682423E+00  0.556249074395541E-08
 -0.675337414025638E+00  0.414186545644071E-17  0.601922233146813E-08
 -0.675337414025638E+00  0.112343328682423E+00  0.556249074394285E-08
 -0.675337414025638E+00  0.224951994744527E+00  0.438679907638036E-08
 -0.675337414025638E+00  0.337641464801303E+00  0.295163213752082E-08
 -0.675337414025638E+00  0.449536557024029E+00  0.170224713440425E-08
 -0.675337414025638E+00  0.560523029461074E+00  0.844879424711920E-09
 -0.675337414025638E+00  0.675337414025638E+00  0.347968706087836E-09
 -0.675337414025638E+00  0.798443291855323E+00  0.111244749156055E-09
 -0.675337414025638E+00  0.904141431802467E+00  0.330352390519925E-10
 -0.675337414025638E+00  0.975060457533844E+00  0.733479846778621E-11
 -0.675337414025638E+00  0.100000000000000E+01  0.150000000000006E-36
 -0.560523029461074E+00 -0.100000000000000E+01  0.150000000000006E-36
 -0.560523029461074E+00 -0.975060457533844E+00 -0.301460065114768E-10
 -0.560523029461074E+00 -0.904141431802467E+00 -0.135774765319080E-09
 -0.560523029461074E+00 -0.798443291855323E+00 -0.457215704083983E-09
 -0.560523029461074E+00 -0.675337414025638E+00 -0.143015075323091E-08
 -0.560523029461074E+00 -0.560523029461074E+00 -0.347245299551024E-08
 -0.560523029461074E+00 -0.449536557024029E+00 -0.699623296075367E-08
 -0.560523029461074E+00 -0.337641464801303E+00 -0.121312034878222E-07
 -0.560523029461074E+00 -0.224951994744527E+00 -0.180297375758164E-07
 -0.560523029461074E+00 -0.112343328682423E+00 -0.228618287084741E-07
 -0.560523029461074E+00  0.414186545644071E-17 -0.247389949116516E-07
 -0.560523029461074E+00  0.112343328682423E+00 -0.228618287084255E-07
 -0.560523029461074E+00  0.224951994744527E+00 -0.180297375757604E-07
 -0.560523029461074E+00  0.337641464801303E+00 -0.121312034877829E-07
 -0.560523029461074E+00  0.449536557024029E+00 -0.699623296073563E-08
 -0.560523029461074E+00  0.560523029461074E+00 -0.347245299550429E-08
 -0.560523029461074E+00  0.675337414025638E+00 -0.143015075323011E-08
 -0.560523029461074E+00  0.798443291855323E+00 -0.457215704084420E-09
 -0.560523029461074E+00  0.904141431802467E+00 -0.135774765319311E-09
 -0.560523029461074E+00  0.975060457533844E+00 -0.301460065115305E-10
 -0.560523029461074E+00  0.100000000000000E+01  0.150000000000006E-36
 -0.449536557024029E+00 -0.100000000000000E+01  0.150000000000006E-36
 -0.449536557024029E+00 -0.975060457533844E+00 -0.698496962519772E-10
 -0.449536557024029E+00 -0.904141431802467E+00 -0.314596434457148E-09
 -0.449536557024029E+00 -0.798443291855323E+00 -0.105939002504117E-08
 -0.449536557024029E+00 -0.675337414025638E+00 -0.331372577318901E-08
 -0.449536557024029E+00 -0.560523029461074E+00 -0.804583507696975E-08
 -0.449536557024029E+00 -0.449536557024029E+00 -0.162105972344738E-07
 -0.449536557024029E+00 -0.337641464801303E+00 -0.281085629473834E-07
 -0.449536557024029E+00 -0.224951994744527E+00 -0.417757410030684E-07
 -0.449536557024029E+00 -0.112343328682423E+00 -0.529719211033570E-07
 -0.449536557024029E+00  0.414186545644071E-17 -0.573214025853331E-07
 -0.449536557024029E+00  0.112343328682423E+00 -0.529719211033746E-07
 -0.449536557024029E+00  0.224951994744527E+00 -0.417757410030832E-07
 -0.449536557024029E+00  0.337641464801303E+00 -0.281085629473891E-07
 -0.449536557024029E+00  0.449536557024029E+00 -0.162105972344707E-07
 -0.449536557024029E+00  0.560523029461074E+00 -0.804583507696532E-08
 -0.449536557024029E+00  0.675337414025638E+00 -0.331372577318480E-08
 -0.449536557024029E+00  0.798443291855323E+00 -0.105939002503837E-08
 -0.449536557024029E+00  0.904141431802467E+00 -0.314596434456039E-09
 -0.449536557024029E+00  0.975060457533844E+00 -0.698496962517160E-10
 -0.449536557024029E+00  0.100000000000000E+01  0.150000000000006E-36
 -0.337641464801303E+00 -0.100000000000000E+01  0.150000000000006E-36
 -0.337641464801303E+00 -0.975060457533844E+00  0.211013525666476E-09
 -0.337641464801303E+00 -0.904141431802467E+00  0.950384986510142E-09
 -0.337641464801303E+00 -0.798443291855323E+00  0.320038073518631E-08
 -0.337641464801303E+00 -0.675337414025638E+00  0.100106512236268E-07
 -0.337641464801303E+00 -0.560523029461074E+00  0.243061900289769E-07
 -0.337641464801303E+00 -0.449536557024029E+00  0.489716544884533E-07
 -0.337641464801303E+00 -0.337641464801303E+00  0.849149978579693E-07
 -0.337641464801303E+00 -0.224951994744527E+00  0.126203070533345E-06
 -0.337641464801303E+00 -0.112343328682423E+00  0.160026343736768E-06
 -0.337641464801303E+00  0.414186545644071E-17  0.173165976994609E-06
 -0.337641464801303E+00  0.112343328682423E+00  0.160026343736787E-06
 -0.337641464801303E+00  0.224951994744527E+00  0.126203070533369E-06
 -0.337641464801303E+00  0.337641464801303E+00  0.849149978579886E-07
 -0.337641464801303E+00  0.449536557024029E+00  0.489716544884618E-07
 -0.337641464801303E+00  0.560523029461074E+00  0.243061900289819E-07
 -0.337641464801303E+00  0.675337414025638E+00  0.100106512236275E-07
 -0.337641464801303E+00  0.798443291855323E+00  0.320038073518499E-08
 -0.337641464801303E+00  0.904141431802467E+00  0.950384986509497E-09
 -0.337641464801303E+00  0.975060457533844E+00  0.211013525666323E-09
 -0.337641464801303E+00  0.100000000000000E+01  0.150000000000006E-36
 -0.224951994744527E+00 -0.100000000000000E+01  0.150000000000006E-36
 -0.224951994744527E+00 -0.975060457533844E+00  0.236988802234394E-09
 -0.224951994744527E+00 -0.904141431802467E+00  0.106737518355637E-08
 -0.224951994744527E+00 -0.798443291855323E+00  0.359434025906853E-08
 -0.224951994744527E+00 -0.675337414025638E+00  0.112429395916447E-07
 -0.224951994744527E+00 -0.560523029461074E+00  0.272982270144051E-07
 -0.224951994744527E+00 -0.449536557024029E+00  0.549999548832045E-07
 -0.224951994744527E+00 -0.337641464801303E+00  0.953678436419596E-07
 -0.224951994744527E+00 -0.224951994744527E+00  0.141738386269528E-06
 -0.224951994744527E+00 -0.112343328682423E+00  0.179725229374813E-06
 -0.224951994744527E+00  0.414186545644071E-17  0.194482322371939E-06
 -0.224951994744527E+00  0.112343328682423E+00  0.179725229374807E-06
 -0.224951994744527E+00  0.224951994744527E+00  0.141738386269508E-06
 -0.224951994744527E+00  0.337641464801303E+00  0.953678436419362E-07
 -0.224951994744527E+00  0.449536557024029E+00  0.549999548831969E-07
 -0.224951994744527E+00  0.560523029461074E+00  0.272982270144012E-07
 -0.224951994744527E+00  0.675337414025638E+00  0.112429395916468E-07
 -0.224951994744527E+00  0.798443291855323E+00  0.359434025907244E-08
 -0.224951994744527E+00  0.904141431802467E+00  0.106737518355794E-08
 -0.224951994744527E+00  0.975060457533844E+00  0.236988802234752E-09
 -0.224951994744527E+00  0.100000000000000E+01  0.150000000000006E-36
 -0.112343328682423E+00 -0.100000000000000E+01  0.150000000000006E-36
 -0.112343328682423E+00 -0.975060457533844E+00  0.399371545028828E-09
 -0.112343328682423E+00 -0.904141431802467E+00  0.179873171552097E-08
 -0.112343328682423E+00 -0.798443291855323E+00  0.605715203885416E-08
 -0.112343328682423E+00 -0.675337414025638E+00  0.189465072904485E-07
 -0.112343328682423E+00 -0.560523029461074E+00  0.460027424604243E-07
 -0.112343328682423E+00 -0.449536557024029E+00  0.926854608842265E-07
 -0.112343328682423E+00 -0.337641464801303E+00  0.160713086851617E-06
 -0.112343328682423E+00 -0.224951994744527E+00  0.238856334505920E-06
 -0.112343328682423E+00 -0.112343328682423E+00  0.302871442376752E-06
 -0.112343328682423E+00  0.414186545644071E-17  0.327739971133244E-06
 -0.112343328682423E+00  0.112343328682423E+00  0.302871442376652E-06
 -0.112343328682423E+00  0.224951994744527E+00  0.238856334505857E-06
 -0.112343328682423E+00  0.337641464801303E+00  0.160713086851610E-06
 -0.112343328682423E+00  0.449536557024029E+00  0.926854608842274E-07
 -0.112343328682423E+00  0.560523029461074E+00  0.460027424604338E-07
 -0.112343328682423E+00  0.675337414025638E+00  0.189465072904496E-07
 -0.112343328682423E+00  0.798443291855323E+00  0.605715203885035E-08
 -0.112343328682423E+00  0.904141431802467E+00  0.179873171551958E-08
 -0.112343328682423E+00  0.975060457533844E+00  0.399371545028538E-09
 -0.112343328682423E+00  0.100000000000000E+01  0.150000000000006E-36
  0.414186545644071E-17 -0.100000000000000E+01  0.150000000000006E-36
  0.414186545644071E-17 -0.975060457533844E+00  0.483520461784143E-09
  0.414186545644071E-17 -0.904141431802467E+00  0.217773047852801E-08
  0.414186545644071E-17 -0.798443291855323E+00  0.733341405147868E-08
  0.414186545644071E-17 -0.675337414025638E+00  0.229385987736869E-07
  0.414186545644071E-17 -0.560523029461074E+00  0.556956709001442E-07
  0.414186545644071E-17 -0.449536557024029E+00  0.112214589351269E-06
  0.414186545644071E-17 -0.337641464801303E+00  0.194575855368634E-06
  0.414186545644071E-17 -0.224951994744527E+00  0.289184136110580E-06
  0.414186545644071E-17 -0.112343328682423E+00  0.366687432072768E-06
  0.414186545644071E-17  0.414186545644071E-17  0.396795839304876E-06
  0.414186545644071E-17  0.112343328682423E+00  0.366687432072973E-06
  0.414186545644071E-17  0.224951994744527E+00  0.289184136110658E-06
  0.414186545644071E-17  0.337641464801303E+00  0.194575855368595E-06
  0.414186545644071E-17  0.449536557024029E+00  0.112214589351231E-06
  0.414186545644071E-17  0.560523029461074E+00  0.556956709001112E-07
  0.414186545644071E-17  0.675337414025638E+00  0.229385987736782E-07
  0.414186545644071E-17  0.798443291855323E+00  0.733341405148194E-08
  0.414186545644071E-17  0.904141431802467E+00  0.217773047852902E-08
  0.414186545644071E-17  0.975060457533844E+00  0.483520461784310E-09
  0.414186545644071E-17  0.100000000000000E+01  0.150000000000006E-36
  0.112343328682423E+00 -0.100000000000000E+01  0.150000000000006E-36
  0.112343328682423E+00 -0.975060457533844E+00  0.245645285619119E-08
  0.112343328682423E+00 -0.904141431802467E+00  0.110636316580340E-07
  0.112343328682423E+00 -0.798443291855323E+00  0.372563060901389E-07
  0.112343328682423E+00 -0.675337414025638E+00  0.116536100383040E-06
  0.112343328682423E+00 -0.560523029461074E+00  0.282953482849707E-06
  0.112343328682423E+00 -0.449536557024029E+00  0.570089359692107E-06
  0.112343328682423E+00 -0.337641464801303E+00  0.988513407904147E-06
  0.112343328682423E+00 -0.224951994744527E+00  0.146915658097345E-05
  0.112343328682423E+00 -0.112343328682423E+00  0.186290044847939E-05
  0.112343328682423E+00  0.414186545644071E-17  0.201586169487209E-05
  0.112343328682423E+00  0.112343328682423E+00  0.186290044847889E-05
  0.112343328682423E+00  0.224951994744527E+00  0.146915658097324E-05
  0.112343328682423E+00  0.337641464801303E+00  0.988513407904184E-06
  0.112343328682423E+00  0.449536557024029E+00  0.570089359692157E-06
  0.112343328682423E+00  0.560523029461074E+00  0.282953482849746E-06
  0.112343328682423E+00  0.675337414025638E+00  0.116536100383046E-06
  0.112343328682423E+00  0.798443291855323E+00  0.372563060901327E-07
  0.112343328682423E+00  0.904141431802467E+00  0.110636316580326E-07
  0.112343328682423E+00  0.975060457533844E+00  0.245645285619103E-08
  0.112343328682423E+00  0.100000000000000E+01  0.150000000000006E-36
  0.224951994744527E+00 -0.100000000000000E+01  0.150000000000006E-36
  0.224951994744527E+00 -0.975060457533844E+00  0.479402061705716E-08
  0.224951994744527E+00 -0.904141431802467E+00  0.215918160579761E-07
  0.224951994744527E+00 -0.798443291855323E+00  0.727095163540069E-07
  0.224951994744527E+00 -0.675337414025638E+00  0.227432195611630E-06
  0.224951994744527E+00 -0.560523029461074E+00  0.552212848433934E-06
  0.224951994744527E+00 -0.449536557024029E+00  0.111258807144949E-05
  0.224951994744527E+00 -0.337641464801303E+00  0.192918567911940E-05
  0.224951994744527E+00 -0.224951994744527E+00  0.286721031739385E-05
  0.224951994744527E+00 -0.112343328682423E+00  0.363564201567692E-05
  0.224951994744527E+00  0.414186545644071E-17  0.393416163765616E-05
  0.224951994744527E+00  0.112343328682423E+00  0.363564201567787E-05
  0.224951994744527E+00  0.224951994744527E+00  0.286721031739421E-05
  0.224951994744527E+00  0.337641464801303E+00  0.192918567911929E-05
  0.224951994744527E+00  0.449536557024029E+00  0.111258807144938E-05
  0.224951994744527E+00  0.560523029461074E+00  0.552212848433871E-06
  0.224951994744527E+00  0.675337414025638E+00  0.227432195611620E-06
  0.224951994744527E+00  0.798443291855323E+00  0.727095163540135E-07
  0.224951994744527E+00  0.904141431802467E+00  0.215918160579773E-07
  0.224951994744527E+00  0.975060457533844E+00  0.479402061705723E-08
  0.224951994744527E+00  0.100000000000000E+01  0.150000000000006E-36
  0.337641464801303E+00 -0.100000000000000E+01  0.150000000000006E-36
  0.337641464801303E+00 -0.975060457533844E+00  0.539960613705222E-07
  0.337641464801303E+00 -0.904141431802467E+00  0.243193160198753E-06
  0.337641464801303E+00 -0.798443291855323E+00  0.818942554895852E-06
  0.337641464801303E+00 -0.675337414025638E+00  0.256161657852287E-05
  0.337641464801303E+00 -0.560523029461074E+00  0.621968924512620E-05
  0.337641464801303E+00 -0.449536557024029E+00  0.125313129760206E-04
  0.337641464801303E+00 -0.337641464801303E+00  0.217288231504012E-04
  0.337641464801303E+00 -0.224951994744527E+00  0.322939914047291E-04
  0.337641464801303E+00 -0.112343328682423E+00  0.409489987795602E-04
  0.337641464801303E+00  0.414186545644071E-17  0.443112878832707E-04
  0.337641464801303E+00  0.112343328682423E+00  0.409489987795586E-04
  0.337641464801303E+00  0.224951994744527E+00  0.322939914047286E-04
  0.337641464801303E+00  0.337641464801303E+00  0.217288231504014E-04
  0.337641464801303E+00  0.449536557024029E+00  0.125313129760208E-04
  0.337641464801303E+00  0.560523029461074E+00  0.621968924512625E-05
  0.337641464801303E+00  0.675337414025638E+00  0.256161657852286E-05
  0.337641464801303E+00  0.798443291855323E+00  0.818942554895843E-06
  0.337641464801303E+00  0.904141431802467E+00  0.243193160198752E-06
  0.337641464801303E+00  0.975060457533844E+00  0.539960613705223E-07
  0.337641464801303E+00  0.100000000000000E+01  0.150000000000006E-36
  0.449536557024029E+00 -0.100000000000000E+01  0.150000000000006E-36
  0.449536557024029E+00 -0.975060457533844E+00  0.296181499803713E-06
  0.449536557024029E+00 -0.904141431802467E+00  0.133397349924088E-05
  0.449536557024029E+00 -0.798443291855323E+00  0.449209864606957E-05
  0.449536557024029E+00 -0.675337414025638E+00  0.140510885588713E-04
  0.449536557024029E+00 -0.560523029461074E+00  0.341165048322464E-04
  0.449536557024029E+00 -0.449536557024029E+00  0.687372926158713E-04
  0.449536557024029E+00 -0.337641464801303E+00  0.119187867835871E-03
  0.449536557024029E+00 -0.224951994744527E+00  0.177140379492250E-03
  0.449536557024029E+00 -0.112343328682423E+00  0.224615195188917E-03
  0.449536557024029E+00  0.414186545644071E-17  0.243058166822325E-03
  0.449536557024029E+00  0.112343328682423E+00  0.224615195188920E-03
  0.449536557024029E+00  0.224951994744527E+00  0.177140379492252E-03
  0.449536557024029E+00  0.337641464801303E+00  0.119187867835871E-03
  0.449536557024029E+00  0.449536557024029E+00  0.687372926158714E-04
  0.449536557024029E+00  0.560523029461074E+00  0.341165048322465E-04
  0.449536557024029E+00  0.675337414025638E+00  0.140510885588713E-04
  0.449536557024029E+00  0.798443291855323E+00  0.449209864606962E-05
  0.449536557024029E+00  0.904141431802467E+00  0.133397349924091E-05
  0.449536557024029E+00  0.975060457533844E+00  0.296181499803718E-06
  0.449536557024029E+00  0.100000000000000E+01  0.150000000000006E-36
  0.560523029461074E+00 -0.100000000000000E+01  0.150000000000006E-36
  0.560523029461074E+00 -0.975060457533844E+00  0.121755034528534E-05
  0.560523029461074E+00 -0.904141431802467E+00  0.548373175059493E-05
  0.560523029461074E+00 -0.798443291855323E+00  0.184662318838187E-04
  0.560523029461074E+00 -0.675337414025638E+00  0.577615675590683E-04
  0.560523029461074E+00 -0.560523029461074E+00  0.140246984398397E-03
  0.560523029461074E+00 -0.449536557024029E+00  0.282566987702920E-03
  0.560523029461074E+00 -0.337641464801303E+00  0.489960478401110E-03
  0.560523029461074E+00 -0.224951994744527E+00  0.728193117589828E-03
  0.560523029461074E+00 -0.112343328682423E+00  0.923353781253367E-03
  0.560523029461074E+00  0.414186545644071E-17  0.999169611829233E-03
  0.560523029461074E+00  0.112343328682423E+00  0.923353781253366E-03
  0.560523029461074E+00  0.224951994744527E+00  0.728193117589829E-03
  0.560523029461074E+00  0.337641464801303E+00  0.489960478401112E-03
  0.560523029461074E+00  0.449536557024029E+00  0.282566987702920E-03
  0.560523029461074E+00  0.560523029461074E+00  0.140246984398397E-03
  0.560523029461074E+00  0.675337414025638E+00  0.577615675590683E-04
  0.560523029461074E+00  0.798443291855323E+00  0.184662318838187E-04
  0.560523029461074E+00  0.904141431802467E+00  0.548373175059497E-05
  0.560523029461074E+00  0.975060457533844E+00  0.121755034528535E-05
  0.560523029461074E+00  0.100000000000000E+01  0.150000000000006E-36
  0.675337414025638E+00 -0.100000000000000E+01  0.150000000000006E-36
  0.675337414025638E+00 -0.975060457533844E+00  0.438941360275860E-05
  0.675337414025638E+00 -0.904141431802467E+00  0.197695042604987E-04
  0.675337414025638E+00 -0.798443291855323E+00  0.665729591518653E-04
  0.675337414025638E+00 -0.675337414025638E+00  0.208237311256542E-03
  0.675337414025638E+00 -0.560523029461074E+00  0.505607035411140E-03
  0.675337414025638E+00 -0.449536557024029E+00  0.101868754989753E-02
  0.675337414025638E+00 -0.337641464801303E+00  0.176636571462522E-02
  0.675337414025638E+00 -0.224951994744527E+00  0.262522267199574E-02
  0.675337414025638E+00 -0.112343328682423E+00  0.332880004212959E-02
  0.675337414025638E+00  0.414186545644071E-17  0.360212511535095E-02
  0.675337414025638E+00  0.112343328682423E+00  0.332880004212960E-02
  0.675337414025638E+00  0.224951994744527E+00  0.262522267199575E-02
  0.675337414025638E+00  0.337641464801303E+00  0.176636571462523E-02
  0.675337414025638E+00  0.449536557024029E+00  0.101868754989753E-02
  0.675337414025638E+00  0.560523029461074E+00  0.505607035411141E-03
  0.675337414025638E+00  0.675337414025638E+00  0.208237311256543E-03
  0.675337414025638E+00  0.798443291855323E+00  0.665729591518656E-04
  0.675337414025638E+00  0.904141431802467E+00  0.197695042604989E-04
  0.675337414025638E+00  0.975060457533844E+00  0.438941360275865E-05
  0.675337414025638E+00  0.100000000000000E+01  0.150000000000006E-36
  0.798443291855323E+00 -0.100000000000000E+01  0.150000000000006E-36
  0.798443291855323E+00 -0.975060457533844E+00  0.141327013760499E-04
  0.798443291855323E+00 -0.904141431802467E+00  0.636523520779950E-04
  0.798443291855323E+00 -0.798443291855323E+00  0.214346570281712E-03
  0.798443291855323E+00 -0.675337414025638E+00  0.670466718530011E-03
  0.798443291855323E+00 -0.560523029461074E+00  0.162791522706815E-02
  0.798443291855323E+00 -0.449536557024029E+00  0.327989299529067E-02
  0.798443291855323E+00 -0.337641464801303E+00  0.568721050352818E-02
  0.798443291855323E+00 -0.224951994744527E+00  0.845249306455469E-02
  0.798443291855323E+00 -0.112343328682423E+00  0.107178181748830E-01
  0.798443291855323E+00  0.414186545644071E-17  0.115978495373054E-01
  0.798443291855323E+00  0.112343328682423E+00  0.107178181748830E-01
  0.798443291855323E+00  0.224951994744527E+00  0.845249306455471E-02
  0.798443291855323E+00  0.337641464801303E+00  0.568721050352820E-02
  0.798443291855323E+00  0.449536557024029E+00  0.327989299529068E-02
  0.798443291855323E+00  0.560523029461074E+00  0.162791522706815E-02
  0.798443291855323E+00  0.675337414025638E+00  0.670466718530012E-03
  0.798443291855323E+00  0.798443291855323E+00  0.214346570281713E-03
  0.798443291855323E+00  0.904141431802467E+00  0.636523520779956E-04
  0.798443291855323E+00  0.975060457533844E+00  0.141327013760500E-04
  0.798443291855323E+00  0.100000000000000E+01  0.150000000000006E-36
  0.904141431802467E+00 -0.100000000000000E+01  0.150000000000006E-36
  0.904141431802467E+00 -0.975060457533844E+00  0.331228604736970E-04
  0.904141431802467E+00 -0.904141431802467E+00  0.149182234915805E-03
  0.904141431802467E+00 -0.798443291855323E+00  0.502364788664104E-03
  0.904141431802467E+00 -0.675337414025638E+00  0.157137513741455E-02
  0.904141431802467E+00 -0.560523029461074E+00  0.381535047552702E-02
  0.904141431802467E+00 -0.449536557024029E+00  0.768709641009331E-02
  0.904141431802467E+00 -0.337641464801303E+00  0.133291346710108E-01
  0.904141431802467E+00 -0.224951994744527E+00  0.198101368472437E-01
  0.904141431802467E+00 -0.112343328682423E+00  0.251193870394643E-01
  0.904141431802467E+00  0.414186545644071E-17  0.271819195468694E-01
  0.904141431802467E+00  0.112343328682423E+00  0.251193870394643E-01
  0.904141431802467E+00  0.224951994744527E+00  0.198101368472437E-01
  0.904141431802467E+00  0.337641464801303E+00  0.133291346710108E-01
  0.904141431802467E+00  0.449536557024029E+00  0.768709641009333E-02
  0.904141431802467E+00  0.560523029461074E+00  0.381535047552703E-02
  0.904141431802467E+00  0.675337414025638E+00  0.157137513741456E-02
  0.904141431802467E+00  0.798443291855323E+00  0.502364788664107E-03
  0.904141431802467E+00  0.904141431802467E+00  0.149182234915807E-03
  0.904141431802467E+00  0.975060457533844E+00  0.331228604736974E-04
  0.904141431802467E+00  0.100000000000000E+01  0.150000000000006E-36
  0.975060457533844E+00 -0.100000000000000E+01  0.150000000000006E-36
  0.975060457533844E+00 -0.975060457533844E+00  0.543437452314983E-04
  0.975060457533844E+00 -0.904141431802467E+00  0.244759095421742E-03
  0.975060457533844E+00 -0.798443291855323E+00  0.824215774171592E-03
  0.975060457533844E+00 -0.675337414025638E+00  0.257811097549673E-02
  0.975060457533844E+00 -0.560523029461074E+00  0.625973817562217E-02
  0.975060457533844E+00 -0.449536557024029E+00  0.126120027935268E-01
  0.975060457533844E+00 -0.337641464801303E+00  0.218687362210441E-01
  0.975060457533844E+00 -0.224951994744527E+00  0.325019341383002E-01
  0.975060457533844E+00 -0.112343328682423E+00  0.412126715441128E-01
  0.975060457533844E+00  0.414186545644071E-17  0.445966105961597E-01
  0.975060457533844E+00  0.112343328682423E+00  0.412126715441129E-01
  0.975060457533844E+00  0.224951994744527E+00  0.325019341383003E-01
  0.975060457533844E+00  0.337641464801303E+00  0.218687362210441E-01
  0.975060457533844E+00  0.449536557024029E+00  0.126120027935268E-01
  0.975060457533844E+00  0.560523029461074E+00  0.625973817562218E-02
  0.975060457533844E+00  0.675337414025638E+00  0.257811097549674E-02
  0.975060457533844E+00  0.798443291855323E+00  0.824215774171596E-03
  0.975060457533844E+00  0.904141431802467E+00  0.244759095421744E-03
  0.975060457533844E+00  0.975060457533844E+00  0.543437452314990E-04
  0.975060457533844E+00  0.100000000000000E+01  0.150000000000006E-36
  0.100000000000000E+01 -0.100000000000000E+01  0.150000000000006E-36
  0.100000000000000E+01 -0.975060457533844E+00  0.637422571535390E-04
  0.100000000000000E+01 -0.904141431802467E+00  0.287089105371705E-03
  0.100000000000000E+01 -0.798443291855323E+00  0.966760270267218E-03
  0.100000000000000E+01 -0.675337414025638E+00  0.302398393908835E-02
  0.100000000000000E+01 -0.560523029461074E+00  0.734233238433463E-02
  0.100000000000000E+01 -0.449536557024029E+00  0.147931932523545E-01