 VARIABLES =  $x$  (a)
 ZONE I=         441 ,DATAPACKING=POINT
 -0.100000000000000E+01 -0.100000000000000E+01  0.000000000000000E+00
 -0.100000000000000E+01 -0.975060457533844E+00  0.000000000000000E+00
 -0.100000000000000E+01 -0.904141431802467E+00  0.000000000000000E+00
 -0.100000000000000E+01 -0.798443291855323E+00  0.000000000000000E+00
 -0.100000000000000E+01 -0.675337414025638E+00  0.000000000000000E+00
 -0.100000000000000E+01 -0.560523029461074E+00  0.000000000000000E+00
 -0.100000000000000E+01 -0.449536557024029E+00  0.000000000000000E+00
 -0.100000000000000E+01 -0.337641464801303E+00  0.000000000000000E+00
 -0.100000000000000E+01 -0.224951994744527E+00  0.000000000000000E+00
 -0.100000000000000E+01 -0.112343328682423E+00  0.000000000000000E+00
 -0.100000000000000E+01  0.414186545644071E-17  0.000000000000000E+00
 -0.100000000000000E+01  0.112343328682423E+00  0.000000000000000E+00
 -0.100000000000000E+01  0.224951994744527E+00  0.000000000000000E+00
 -0.100000000000000E+01  0.337641464801303E+00  0.000000000000000E+00
 -0.100000000000000E+01  0.449536557024029E+00  0.000000000000000E+00
 -0.100000000000000E+01  0.560523029461074E+00  0.000000000000000E+00
 -0.100000000000000E+01  0.675337414025638E+00  0.000000000000000E+00
 -0.100000000000000E+01  0.798443291855323E+00  0.000000000000000E+00
 -0.100000000000000E+01  0.904141431802467E+00  0.000000000000000E+00
 -0.100000000000000E+01  0.975060457533844E+00  0.000000000000000E+00
 -0.100000000000000E+01  0.100000000000000E+01  0.000000000000000E+00
 -0.975060457533844E+00 -0.100000000000000E+01  0.000000000000000E+00
 -0.975060457533844E+00 -0.975060457533844E+00  0.226402037660927E-20
 -0.975060457533844E+00 -0.904141431802467E+00  0.633656134169029E-19
 -0.975060457533844E+00 -0.798443291855323E+00  0.569829507256016E-17
 -0.975060457533844E+00 -0.675337414025638E+00  0.531627846644405E-15
 -0.975060457533844E+00 -0.560523029461074E+00  0.184590051394666E-13
 -0.975060457533844E+00 -0.449536557024029E+00  0.304334095477980E-12
 -0.975060457533844E+00 -0.337641464801303E+00  0.275221144669210E-11
 -0.975060457533844E+00 -0.224951994744527E+00  0.134282906141969E-10
 -0.975060457533844E+00 -0.112343328682423E+00  0.347063661370902E-10
 -0.975060457533844E+00  0.414186545644071E-17  0.475817231361925E-10
 -0.975060457533844E+00  0.112343328682423E+00  0.347063661370902E-10
 -0.975060457533844E+00  0.224951994744527E+00  0.134282906141969E-10
 -0.975060457533844E+00  0.337641464801303E+00  0.275221144669210E-11
 -0.975060457533844E+00  0.449536557024029E+00  0.304334095477980E-12
 -0.975060457533844E+00  0.560523029461074E+00  0.184590051394666E-13
 -0.975060457533844E+00  0.675337414025638E+00  0.531627846644405E-15
 -0.975060457533844E+00  0.798443291855323E+00  0.569829507256016E-17
 -0.975060457533844E+00  0.904141431802467E+00  0.633656134169029E-19
 -0.975060457533844E+00  0.975060457533844E+00  0.226402037660927E-20
 -0.975060457533844E+00  0.100000000000000E+01  0.000000000000000E+00
 -0.904141431802467E+00 -0.100000000000000E+01  0.000000000000000E+00
 -0.904141431802467E+00 -0.975060457533844E+00  0.633656134169029E-19
 -0.904141431802467E+00 -0.904141431802467E+00  0.177348269705672E-17
 -0.904141431802467E+00 -0.798443291855323E+00  0.159484413847926E-15
 -0.904141431802467E+00 -0.675337414025638E+00  0.148792497453496E-13
 -0.904141431802467E+00 -0.560523029461074E+00  0.516632357116778E-12
 -0.904141431802467E+00 -0.449536557024029E+00  0.851773104291659E-11
 -0.904141431802467E+00 -0.337641464801303E+00  0.770291506094356E-10
 -0.904141431802467E+00 -0.224951994744527E+00  0.375832249877261E-09
 -0.904141431802467E+00 -0.112343328682423E+00  0.971365011759294E-09
 -0.904141431802467E+00  0.414186545644071E-17  0.133172170405709E-08
 -0.904141431802467E+00  0.112343328682423E+00  0.971365011759294E-09
 -0.904141431802467E+00  0.224951994744527E+00  0.375832249877261E-09
 -0.904141431802467E+00  0.337641464801303E+00  0.770291506094356E-10
 -0.904141431802467E+00  0.449536557024029E+00  0.851773104291659E-11
 -0.904141431802467E+00  0.560523029461074E+00  0.516632357116778E-12
 -0.904141431802467E+00  0.675337414025638E+00  0.148792497453496E-13
 -0.904141431802467E+00  0.798443291855323E+00  0.159484413847926E-15
 -0.904141431802467E+00  0.904141431802467E+00  0.177348269705672E-17
 -0.904141431802467E+00  0.975060457533844E+00  0.633656134169029E-19
 -0.904141431802467E+00  0.100000000000000E+01  0.000000000000000E+00
 -0.798443291855323E+00 -0.100000000000000E+01  0.000000000000000E+00
 -0.798443291855323E+00 -0.975060457533844E+00  0.569829507256016E-17
 -0.798443291855323E+00 -0.904141431802467E+00  0.159484413847926E-15
 -0.798443291855323E+00 -0.798443291855323E+00  0.143419940339023E-13
 -0.798443291855323E+00 -0.675337414025638E+00  0.133804994436779E-11
 -0.798443291855323E+00 -0.560523029461074E+00  0.464593247999455E-10
 -0.798443291855323E+00 -0.449536557024029E+00  0.765976090405795E-09
 -0.798443291855323E+00 -0.337641464801303E+00  0.692701933576097E-08
 -0.798443291855323E+00 -0.224951994744527E+00  0.337975589929903E-07
 -0.798443291855323E+00 -0.112343328682423E+00  0.873521798605175E-07
 -0.798443291855323E+00  0.414186545644071E-17  0.119758064588162E-06
 -0.798443291855323E+00  0.112343328682423E+00  0.873521798605175E-07
 -0.798443291855323E+00  0.224951994744527E+00  0.337975589929903E-07
 -0.798443291855323E+00  0.337641464801303E+00  0.692701933576097E-08
 -0.798443291855323E+00  0.449536557024029E+00  0.765976090405795E-09
 -0.798443291855323E+00  0.560523029461074E+00  0.464593247999455E-10
 -0.798443291855323E+00  0.675337414025638E+00  0.133804994436779E-11
 -0.798443291855323E+00  0.798443291855323E+00  0.143419940339023E-13
 -0.798443291855323E+00  0.904141431802467E+00  0.159484413847926E-15
 -0.798443291855323E+00  0.975060457533844E+00  0.569829507256016E-17
 -0.798443291855323E+00  0.100000000000000E+01  0.000000000000000E+00
 -0.675337414025638E+00 -0.100000000000000E+01  0.000000000000000E+00
 -0.675337414025638E+00 -0.975060457533844E+00  0.531627846644405E-15
 -0.675337414025638E+00 -0.904141431802467E+00  0.148792497453496E-13
 -0.675337414025638E+00 -0.798443291855323E+00  0.133804994436779E-11
 -0.675337414025638E+00 -0.675337414025638E+00  0.124834639408611E-09
 -0.675337414025638E+00 -0.560523029461074E+00  0.433446679847891E-08
 -0.675337414025638E+00 -0.449536557024029E+00  0.714624662882854E-07
 -0.675337414025638E+00 -0.337641464801303E+00  0.646262842875250E-06
 -0.675337414025638E+00 -0.224951994744527E+00  0.315317534113025E-05
 -0.675337414025638E+00 -0.112343328682423E+00  0.814960451987920E-05
 -0.675337414025638E+00  0.414186545644071E-17  0.111729422896841E-04
 -0.675337414025638E+00  0.112343328682423E+00  0.814960451987920E-05
 -0.675337414025638E+00  0.224951994744527E+00  0.315317534113025E-05
 -0.675337414025638E+00  0.337641464801303E+00  0.646262842875250E-06
 -0.675337414025638E+00  0.449536557024029E+00  0.714624662882854E-07
 -0.675337414025638E+00  0.560523029461074E+00  0.433446679847891E-08
 -0.675337414025638E+00  0.675337414025638E+00  0.124834639408611E-09
 -0.675337414025638E+00  0.798443291855323E+00  0.133804994436779E-11
 -0.675337414025638E+00  0.904141431802467E+00  0.148792497453496E-13
 -0.675337414025638E+00  0.975060457533844E+00  0.531627846644405E-15
 -0.675337414025638E+00  0.100000000000000E+01  0.000000000000000E+00
 -0.560523029461074E+00 -0.100000000000000E+01  0.000000000000000E+00
 -0.560523029461074E+00 -0.975060457533844E+00  0.184590051394666E-13
 -0.560523029461074E+00 -0.904141431802467E+00  0.516632357116778E-12
 -0.560523029461074E+00 -0.798443291855323E+00  0.464593247999455E-10
 -0.560523029461074E+00 -0.675337414025638E+00  0.433446679847891E-08
 -0.560523029461074E+00 -0.560523029461074E+00  0.150499913454471E-06
 -0.560523029461074E+00 -0.449536557024029E+00  0.248129596826171E-05
 -0.560523029461074E+00 -0.337641464801303E+00  0.224393233224667E-04
 -0.560523029461074E+00 -0.224951994744527E+00  0.109483504663920E-03
 -0.560523029461074E+00 -0.112343328682423E+00  0.282967855552707E-03
 -0.560523029461074E+00  0.414186545644071E-17  0.387943183281355E-03
 -0.560523029461074E+00  0.112343328682423E+00  0.282967855552707E-03
 -0.560523029461074E+00  0.224951994744527E+00  0.109483504663920E-03
 -0.560523029461074E+00  0.337641464801303E+00  0.224393233224667E-04
 -0.560523029461074E+00  0.449536557024029E+00  0.248129596826171E-05
 -0.560523029461074E+00  0.560523029461074E+00  0.150499913454471E-06
 -0.560523029461074E+00  0.675337414025638E+00  0.433446679847891E-08
 -0.560523029461074E+00  0.798443291855323E+00  0.464593247999455E-10
 -0.560523029461074E+00  0.904141431802467E+00  0.516632357116778E-12
 -0.560523029461074E+00  0.975060457533844E+00  0.184590051394666E-13
 -0.560523029461074E+00  0.100000000000000E+01  0.000000000000000E+00
 -0.449536557024029E+00 -0.100000000000000E+01  0.000000000000000E+00
 -0.449536557024029E+00 -0.975060457533844E+00  0.304334095477980E-12
 -0.449536557024029E+00 -0.904141431802467E+00  0.851773104291659E-11
 -0.449536557024029E+00 -0.798443291855323E+00  0.765976090405795E-09
 -0.449536557024029E+00 -0.675337414025638E+00  0.714624662882854E-07
 -0.449536557024029E+00 -0.560523029461074E+00  0.248129596826171E-05
 -0.449536557024029E+00 -0.449536557024029E+00  0.409091908479694E-04
 -0.449536557024029E+00 -0.337641464801303E+00  0.369957704377029E-03
 -0.449536557024029E+00 -0.224951994744527E+00  0.180505737497271E-02
 -0.449536557024029E+00 -0.112343328682423E+00  0.466529835808178E-02
 -0.449536557024029E+00  0.414186545644071E-17  0.639602930324506E-02
 -0.449536557024029E+00  0.112343328682423E+00  0.466529835808178E-02
 -0.449536557024029E+00  0.224951994744527E+00  0.180505737497271E-02
 -0.449536557024029E+00  0.337641464801303E+00  0.369957704377029E-03
 -0.449536557024029E+00  0.449536557024029E+00  0.409091908479694E-04
 -0.449536557024029E+00  0.560523029461074E+00  0.248129596826171E-05
 -0.449536557024029E+00  0.675337414025638E+00  0.714624662882854E-07
 -0.449536557024029E+00  0.798443291855323E+00  0.765976090405795E-09
 -0.449536557024029E+00  0.904141431802467E+00  0.851773104291659E-11
 -0.449536557024029E+00  0.975060457533844E+00  0.304334095477980E-12
 -0.449536557024029E+00  0.100000000000000E+01  0.000000000000000E+00
 -0.337641464801303E+00 -0.100000000000000E+01  0.000000000000000E+00
 -0.337641464801303E+00 -0.975060457533844E+00  0.275221144669210E-11
 -0.337641464801303E+00 -0.904141431802467E+00  0.770291506094356E-10
 -0.337641464801303E+00 -0.798443291855323E+00  0.692701933576097E-08
 -0.337641464801303E+00 -0.675337414025638E+00  0.646262842875250E-06
 -0.337641464801303E+00 -0.560523029461074E+00  0.224393233224667E-04
 -0.337641464801303E+00 -0.449536557024029E+00  0.369957704377029E-03
 -0.337641464801303E+00 -0.337641464801303E+00  0.334567123404043E-02
 -0.337641464801303E+00 -0.224951994744527E+00  0.163238350324614E-01
 -0.337641464801303E+00 -0.112343328682423E+00  0.421901053287523E-01
 -0.337641464801303E+00  0.414186545644071E-17  0.578417775836845E-01
 -0.337641464801303E+00  0.112343328682423E+00  0.421901053287523E-01
 -0.337641464801303E+00  0.224951994744527E+00  0.163238350324614E-01
 -0.337641464801303E+00  0.337641464801303E+00  0.334567123404043E-02
 -0.337641464801303E+00  0.449536557024029E+00  0.369957704377029E-03
 -0.337641464801303E+00  0.560523029461074E+00  0.224393233224667E-04
 -0.337641464801303E+00  0.675337414025638E+00  0.646262842875250E-06
 -0.337641464801303E+00  0.798443291855323E+00  0.692701933576097E-08
 -0.337641464801303E+00  0.904141431802467E+00  0.770291506094356E-10
 -0.337641464801303E+00  0.975060457533844E+00  0.275221144669210E-11
 -0.337641464801303E+00  0.100000000000000E+01  0.000000000000000E+00
 -0.224951994744527E+00 -0.100000000000000E+01  0.000000000000000E+00
 -0.224951994744527E+00 -0.975060457533844E+00  0.134282906141969E-10
 -0.224951994744527E+00 -0.904141431802467E+00  0.375832249877261E-09
 -0.224951994744527E+00 -0.798443291855323E+00  0.337975589929903E-07
 -0.224951994744527E+00 -0.675337414025638E+00  0.315317534113025E-05
 -0.224951994744527E+00 -0.560523029461074E+00  0.109483504663920E-03
 -0.224951994744527E+00 -0.449536557024029E+00  0.180505737497271E-02
 -0.224951994744527E+00 -0.337641464801303E+00  0.163238350324614E-01
 -0.224951994744527E+00 -0.224951994744527E+00  0.796454796442181E-01
 -0.224951994744527E+00 -0.112343328682423E+00  0.205849371086292E+00
 -0.224951994744527E+00  0.414186545644071E-17  0.282215307246468E+00
 -0.224951994744527E+00  0.112343328682423E+00  0.205849371086292E+00
 -0.224951994744527E+00  0.224951994744527E+00  0.796454796442181E-01
 -0.224951994744527E+00  0.337641464801303E+00  0.163238350324614E-01
 -0.224951994744527E+00  0.449536557024029E+00  0.180505737497271E-02
 -0.224951994744527E+00  0.560523029461074E+00  0.109483504663920E-03
 -0.224951994744527E+00  0.675337414025638E+00  0.315317534113025E-05
 -0.224951994744527E+00  0.798443291855323E+00  0.337975589929903E-07
 -0.224951994744527E+00  0.904141431802467E+00  0.375832249877261E-09
 -0.224951994744527E+00  0.975060457533844E+00  0.134282906141969E-10
 -0.224951994744527E+00  0.100000000000000E+01  0.000000000000000E+00
 -0.112343328682423E+00 -0.100000000000000E+01  0.000000000000000E+00
 -0.112343328682423E+00 -0.975060457533844E+00  0.347063661370902E-10
 -0.112343328682423E+00 -0.904141431802467E+00  0.971365011759294E-09
 -0.112343328682423E+00 -0.798443291855323E+00  0.873521798605175E-07
 -0.112343328682423E+00 -0.675337414025638E+00  0.814960451987920E-05
 -0.112343328682423E+00 -0.560523029461074E+00  0.282967855552707E-03
 -0.112343328682423E+00 -0.449536557024029E+00  0.466529835808178E-02
 -0.112343328682423E+00 -0.337641464801303E+00  0.421901053287523E-01
 -0.112343328682423E+00 -0.224951994744527E+00  0.205849371086292E+00
 -0.112343328682423E+00 -0.112343328682423E+00  0.532032247980796E+00
 -0.112343328682423E+00  0.414186545644071E-17  0.729405407150781E+00
 -0.112343328682423E+00  0.112343328682423E+00  0.532032247980796E+00
 -0.112343328682423E+00  0.224951994744527E+00  0.205849371086292E+00
 -0.112343328682423E+00  0.337641464801303E+00  0.421901053287523E-01
 -0.112343328682423E+00  0.449536557024029E+00  0.466529835808178E-02
 -0.112343328682423E+00  0.560523029461074E+00  0.282967855552707E-03
 -0.112343328682423E+00  0.675337414025638E+00  0.814960451987920E-05
 -0.112343328682423E+00  0.798443291855323E+00  0.873521798605175E-07
 -0.112343328682423E+00  0.904141431802467E+00  0.971365011759294E-09
 -0.112343328682423E+00  0.975060457533844E+00  0.347063661370902E-10
 -0.112343328682423E+00  0.100000000000000E+01  0.000000000000000E+00
  0.414186545644071E-17 -0.100000000000000E+01  0.000000000000000E+00
  0.414186545644071E-17 -0.975060457533844E+00  0.475817231361925E-10
  0.414186545644071E-17 -0.904141431802467E+00  0.133172170405709E-08
  0.414186545644071E-17 -0.798443291855323E+00  0.119758064588162E-06
  0.414186545644071E-17 -0.675337414025638E+00  0.111729422896841E-04
  0.414186545644071E-17 -0.560523029461074E+00  0.387943183281355E-03
  0.414186545644071E-17 -0.449536557024029E+00  0.639602930324506E-02
  0.414186545644071E-17 -0.337641464801303E+00  0.578417775836845E-01
  0.414186545644071E-17 -0.224951994744527E+00  0.282215307246468E+00
  0.414186545644071E-17 -0.112343328682423E+00  0.729405407150781E+00
  0.414186545644071E-17  0.414186545644071E-17  0.100000000000000E+01
  0.414186545644071E-17  0.112343328682423E+00  0.729405407150781E+00
  0.414186545644071E-17  0.224951994744527E+00  0.282215307246468E+00
  0.414186545644071E-17  0.337641464801303E+00  0.578417775836845E-01
  0.414186545644071E-17  0.449536557024029E+00  0.639602930324506E-02
  0.414186545644071E-17  0.560523029461074E+00  0.387943183281355E-03
  0.414186545644071E-17  0.675337414025638E+00  0.111729422896841E-04
  0.414186545644071E-17  0.798443291855323E+00  0.119758064588162E-06
  0.414186545644071E-17  0.904141431802467E+00  0.133172170405709E-08
  0.414186545644071E-17  0.975060457533844E+00  0.475817231361925E-10
  0.414186545644071E-17  0.100000000000000E+01  0.000000000000000E+00
  0.112343328682423E+00 -0.100000000000000E+01  0.000000000000000E+00
  0.112343328682423E+00 -0.975060457533844E+00  0.347063661370902E-10
  0.112343328682423E+00 -0.904141431802467E+00  0.971365011759294E-09
  0.112343328682423E+00 -0.798443291855323E+00  0.873521798605175E-07
  0.112343328682423E+00 -0.675337414025638E+00  0.814960451987920E-05
  0.112343328682423E+00 -0.560523029461074E+00  0.282967855552707E-03
  0.112343328682423E+00 -0.449536557024029E+00  0.466529835808178E-02
  0.112343328682423E+00 -0.337641464801303E+00  0.421901053287523E-01
  0.112343328682423E+00 -0.224951994744527E+00  0.205849371086292E+00
  0.112343328682423E+00 -0.112343328682423E+00  0.532032247980796E+00
  0.112343328682423E+00  0.414186545644071E-17  0.729405407150781E+00
  0.112343328682423E+00  0.112343328682423E+00  0.532032247980796E+00
  0.112343328682423E+00  0.224951994744527E+00  0.205849371086292E+00
  0.112343328682423E+00  0.337641464801303E+00  0.421901053287523E-01
  0.112343328682423E+00  0.449536557024029E+00  0.466529835808178E-02
  0.112343328682423E+00  0.560523029461074E+00  0.282967855552707E-03
  0.112343328682423E+00  0.675337414025638E+00  0.814960451987920E-05
  0.112343328682423E+00  0.798443291855323E+00  0.873521798605175E-07
  0.112343328682423E+00  0.904141431802467E+00  0.971365011759294E-09
  0.112343328682423E+00  0.975060457533844E+00  0.347063661370902E-10
  0.112343328682423E+00  0.100000000000000E+01  0.000000000000000E+00
  0.224951994744527E+00 -0.100000000000000E+01  0.000000000000000E+00
  0.224951994744527E+00 -0.975060457533844E+00  0.134282906141969E-10
  0.224951994744527E+00 -0.904141431802467E+00  0.375832249877261E-09
  0.224951994744527E+00 -0.798443291855323E+00  0.337975589929903E-07
  0.224951994744527E+00 -0.675337414025638E+00  0.315317534113025E-05
  0.224951994744527E+00 -0.560523029461074E+00  0.109483504663920E-03
  0.224951994744527E+00 -0.449536557024029E+00  0.180505737497271E-02
  0.224951994744527E+00 -0.337641464801303E+00  0.163238350324614E-01
  0.224951994744527E+00 -0.224951994744527E+00  0.796454796442181E-01
  0.224951994744527E+00 -0.112343328682423E+00  0.205849371086292E+00
  0.224951994744527E+00  0.414186545644071E-17  0.282215307246468E+00
  0.224951994744527E+00  0.112343328682423E+00  0.205849371086292E+00
  0.224951994744527E+00  0.224951994744527E+00  0.796454796442181E-01
  0.224951994744527E+00  0.337641464801303E+00  0.163238350324614E-01
  0.224951994744527E+00  0.449536557024029E+00  0.180505737497271E-02
  0.224951994744527E+00  0.560523029461074E+00  0.109483504663920E-03
  0.224951994744527E+00  0.675337414025638E+00  0.315317534113025E-05
  0.224951994744527E+00  0.798443291855323E+00  0.337975589929903E-07
  0.224951994744527E+00  0.904141431802467E+00  0.375832249877261E-09
  0.224951994744527E+00  0.975060457533844E+00  0.134282906141969E-10
  0.224951994744527E+00  0.100000000000000E+01  0.000000000000000E+00
  0.337641464801303E+00 -0.100000000000000E+01  0.000000000000000E+00
  0.337641464801303E+00 -0.975060457533844E+00  0.275221144669210E-11
  0.337641464801303E+00 -0.904141431802467E+00  0.770291506094356E-10
  0.337641464801303E+00 -0.798443291855323E+00  0.692701933576097E-08
  0.337641464801303E+00 -0.675337414025638E+00  0.646262842875250E-06
  0.337641464801303E+00 -0.560523029461074E+00  0.224393233224667E-04
  0.337641464801303E+00 -0.449536557024029E+00  0.369957704377029E-03
  0.337641464801303E+00 -0.337641464801303E+00  0.334567123404043E-02
  0.337641464801303E+00 -0.224951994744527E+00  0.163238350324614E-01
  0.337641464801303E+00 -0.112343328682423E+00  0.421901053287523E-01
  0.337641464801303E+00  0.414186545644071E-17  0.578417775836845E-01
  0.337641464801303E+00  0.112343328682423E+00  0.421901053287523E-01
  0.337641464801303E+00  0.224951994744527E+00  0.163238350324614E-01
  0.337641464801303E+00  0.337641464801303E+00  0.334567123404043E-02
  0.337641464801303E+00  0.449536557024029E+00  0.369957704377029E-03
  0.337641464801303E+00  0.560523029461074E+00  0.224393233224667E-04
  0.337641464801303E+00  0.675337414025638E+00  0.646262842875250E-06
  0.337641464801303E+00  0.798443291855323E+00  0.692701933576097E-08
  0.337641464801303E+00  0.904141431802467E+00  0.770291506094356E-10
  0.337641464801303E+00  0.975060457533844E+00  0.275221144669210E-11
  0.337641464801303E+00  0.100000000000000E+01  0.000000000000000E+00
  0.449536557024029E+00 -0.100000000000000E+01  0.000000000000000E+00
  0.449536557024029E+00 -0.975060457533844E+00  0.304334095477980E-12
  0.449536557024029E+00 -0.904141431802467E+00  0.851773104291659E-11
  0.449536557024029E+00 -0.798443291855323E+00  0.765976090405795E-09
  0.449536557024029E+00 -0.675337414025638E+00  0.714624662882854E-07
  0.449536557024029E+00 -0.560523029461074E+00  0.248129596826171E-05
  0.449536557024029E+00 -0.449536557024029E+00  0.409091908479694E-04
  0.449536557024029E+00 -0.337641464801303E+00  0.369957704377029E-03
  0.449536557024029E+00 -0.224951994744527E+00  0.180505737497271E-02
  0.449536557024029E+00 -0.112343328682423E+00  0.466529835808178E-02
  0.449536557024029E+00  0.414186545644071E-17  0.639602930324506E-02
  0.449536557024029E+00  0.112343328682423E+00  0.466529835808178E-02
  0.449536557024029E+00  0.224951994744527E+00  0.180505737497271E-02
  0.449536557024029E+00  0.337641464801303E+00  0.369957704377029E-03
  0.449536557024029E+00  0.449536557024029E+00  0.409091908479694E-04
  0.449536557024029E+00  0.560523029461074E+00  0.248129596826171E-05
  0.449536557024029E+00  0.675337414025638E+00  0.714624662882854E-07
  0.449536557024029E+00  0.798443291855323E+00  0.765976090405795E-09
  0.449536557024029E+00  0.904141431802467E+00  0.851773104291659E-11
  0.449536557024029E+00  0.975060457533844E+00  0.304334095477980E-12
  0.449536557024029E+00  0.100000000000000E+01  0.000000000000000E+00
  0.560523029461074E+00 -0.100000000000000E+01  0.000000000000000E+00
  0.560523029461074E+00 -0.975060457533844E+00  0.184590051394666E-13
  0.560523029461074E+00 -0.904141431802467E+00  0.516632357116778E-12
  0.560523029461074E+00 -0.798443291855323E+00  0.464593247999455E-10
  0.560523029461074E+00 -0.675337414025638E+00  0.433446679847891E-08
  0.560523029461074E+00 -0.560523029461074E+00  0.150499913454471E-06
  0.560523029461074E+00 -0.449536557024029E+00  0.248129596826171E-05
  0.560523029461074E+00 -0.337641464801303E+00  0.224393233224667E-04
  0.560523029461074E+00 -0.224951994744527E+00  0.109483504663920E-03
  0.560523029461074E+00 -0.112343328682423E+00  0.282967855552707E-03
  0.560523029461074E+00  0.414186545644071E-17  0.387943183281355E-03
  0.560523029461074E+00  0.112343328682423E+00  0.282967855552707E-03
  0.560523029461074E+00  0.224951994744527E+00  0.109483504663920E-03
  0.560523029461074E+00  0.337641464801303E+00  0.224393233224667E-04
  0.560523029461074E+00  0.449536557024029E+00  0.248129596826171E-05
  0.560523029461074E+00  0.560523029461074E+00  0.150499913454471E-06
  0.560523029461074E+00  0.675337414025638E+00  0.433446679847891E-08
  0.560523029461074E+00  0.798443291855323E+00  0.464593247999455E-10
  0.560523029461074E+00  0.904141431802467E+00  0.516632357116778E-12
  0.560523029461074E+00  0.975060457533844E+00  0.184590051394666E-13
  0.560523029461074E+00  0.100000000000000E+01  0.000000000000000E+00
  0.675337414025638E+00 -0.100000000000000E+01  0.000000000000000E+00
  0.675337414025638E+00 -0.975060457533844E+00  0.531627846644405E-15
  0.675337414025638E+00 -0.904141431802467E+00  0.148792497453496E-13
  0.675337414025638E+00 -0.798443291855323E+00  0.133804994436779E-11
  0.675337414025638E+00 -0.675337414025638E+00  0.124834639408611E-09
  0.675337414025638E+00 -0.560523029461074E+00  0.433446679847891E-08
  0.675337414025638E+00 -0.449536557024029E+00  0.714624662882854E-07
  0.675337414025638E+00 -0.337641464801303E+00  0.646262842875250E-06
  0.675337414025638E+00 -0.224951994744527E+00  0.315317534113025E-05
  0.675337414025638E+00 -0.112343328682423E+00  0.814960451987920E-05
  0.675337414025638E+00  0.414186545644071E-17  0.111729422896841E-04
  0.675337414025638E+00  0.112343328682423E+00  0.814960451987920E-05
  0.675337414025638E+00  0.224951994744527E+00  0.315317534113025E-05
  0.675337414025638E+00  0.337641464801303E+00  0.646262842875250E-06
  0.675337414025638E+00  0.449536557024029E+00  0.714624662882854E-07
  0.675337414025638E+00  0.560523029461074E+00  0.433446679847891E-08
  0.675337414025638E+00  0.675337414025638E+00  0.124834639408611E-09
  0.675337414025638E+00  0.798443291855323E+00  0.133804994436779E-11
  0.675337414025638E+00  0.904141431802467E+00  0.148792497453496E-13
  0.675337414025638E+00  0.975060457533844E+00  0.531627846644405E-15
  0.675337414025638E+00  0.100000000000000E+01  0.000000000000000E+00
  0.798443291855323E+00 -0.100000000000000E+01  0.000000000000000E+00
  0.798443291855323E+00 -0.975060457533844E+00  0.569829507256016E-17
  0.798443291855323E+00 -0.904141431802467E+00  0.159484413847926E-15
  0.798443291855323E+00 -0.798443291855323E+00  0.143419940339023E-13
  0.798443291855323E+00 -0.675337414025638E+00  0.133804994436779E-11
  0.798443291855323E+00 -0.560523029461074E+00  0.464593247999455E-10
  0.798443291855323E+00 -0.449536557024029E+00  0.765976090405795E-09
  0.798443291855323E+00 -0.337641464801303E+00  0.692701933576097E-08
  0.798443291855323E+00 -0.224951994744527E+00  0.337975589929903E-07
  0.798443291855323E+00 -0.112343328682423E+00  0.873521798605175E-07
  0.798443291855323E+00  0.414186545644071E-17  0.119758064588162E-06
  0.798443291855323E+00  0.112343328682423E+00  0.873521798605175E-07
  0.798443291855323E+00  0.224951994744527E+00  0.337975589929903E-07
  0.798443291855323E+00  0.337641464801303E+00  0.692701933576097E-08
  0.798443291855323E+00  0.449536557024029E+00  0.765976090405795E-09
  0.798443291855323E+00  0.560523029461074E+00  0.464593247999455E-10
  0.798443291855323E+00  0.675337414025638E+00  0.133804994436779E-11
  0.798443291855323E+00  0.798443291855323E+00  0.143419940339023E-13
  0.798443291855323E+00  0.904141431802467E+00  0.159484413847926E-15
  0.798443291855323E+00  0.975060457533844E+00  0.569829507256016E-17
  0.798443291855323E+00  0.100000000000000E+01  0.000000000000000E+00
  0.904141431802467E+00 -0.100000000000000E+01  0.000000000000000E+00
  0.904141431802467E+00 -0.975060457533844E+00  0.633656134169029E-19
  0.904141431802467E+00 -0.904141431802467E+00  0.177348269705672E-17
  0.904141431802467E+00 -0.798443291855323E+00  0.159484413847926E-15
  0.904141431802467E+00 -0.675337414025638E+00  0.148792497453496E-13
  0.904141431802467E+00 -0.560523029461074E+00  0.516632357116778E-12
  0.904141431802467E+00 -0.449536557024029E+00  0.851773104291659E-11
  0.904141431802467E+00 -0.337641464801303E+00  0.770291506094356E-10
  0.904141431802467E+00 -0.224951994744527E+00  0.375832249877261E-09
  0.904141431802467E+00 -0.112343328682423E+00  0.971365011759294E-09
  0.904141431802467E+00  0.414186545644071E-17  0.133172170405709E-08
  0.904141431802467E+00  0.112343328682423E+00  0.971365011759294E-09
  0.904141431802467E+00  0.224951994744527E+00  0.375832249877261E-09
  0.904141431802467E+00  0.337641464801303E+00  0.770291506094356E-10
  0.904141431802467E+00  0.449536557024029E+00  0.851773104291659E-11
  0.904141431802467E+00  0.560523029461074E+00  0.516632357116778E-12
  0.904141431802467E+00  0.675337414025638E+00  0.148792497453496E-13
  0.904141431802467E+00  0.798443291855323E+00  0.159484413847926E-15
  0.904141431802467E+00  0.904141431802467E+00  0.177348269705672E-17
  0.904141431802467E+00  0.975060457533844E+00  0.633656134169029E-19
  0.904141431802467E+00  0.100000000000000E+01  0.000000000000000E+00
  0.975060457533844E+00 -0.100000000000000E+01  0.000000000000000E+00
  0.975060457533844E+00 -0.975060457533844E+00  0.226402037660927E-20
  0.975060457533844E+00 -0.904141431802467E+00  0.633656134169029E-19
  0.975060457533844E+00 -0.798443291855323E+00  0.569829507256016E-17
  0.975060457533844E+00 -0.675337414025638E+00  0.531627846644405E-15
  0.975060457533844E+00 -0.560523029461074E+00  0.184590051394666E-13
  0.975060457533844E+00 -0.449536557024029E+00  0.304334095477980E-12
  0.975060457533844E+00 -0.337641464801303E+00  0.275221144669210E-11
  0.975060457533844E+00 -0.224951994744527E+00  0.134282906141969E-10
  0.975060457533844E+00 -0.112343328682423E+00  0.347063661370902E-10
  0.975060457533844E+00  0.414186545644071E-17  0.475817231361925E-10
  0.975060457533844E+00  0.112343328682423E+00  0.347063661370902E-10
  0.975060457533844E+00  0.224951994744527E+00  0.134282906141969E-10
  0.975060457533844E+00  0.337641464801303E+00  0.275221144669210E-11
  0.975060457533844E+00  0.449536557024029E+00  0.304334095477980E-12
  0.975060457533844E+00  0.560523029461074E+00  0.184590051394666E-13
  0.975060457533844E+00  0.675337414025638E+00  0.531627846644405E-15
  0.975060457533844E+00  0.798443291855323E+00  0.569829507256016E-17
  0.975060457533844E+00  0.904141431802467E+00  0.633656134169029E-19
  0.975060457533844E+00  0.975060457533844E+00  0.226402037660927E-20
  0.975060457533844E+00  0.100000000000000E+01  0.000000000000000E+00
  0.100000000000000E+01 -0.100000000000000E+01  0.000000000000000E+00
  0.100000000000000E+01 -0.975060457533844E+00  0.660812299913701E-21
  0.100000000000000E+01 -0.904141431802467E+00  0.184948762696991E-19
  0.100000000000000E+01 -0.798443291855323E+00  0.166319327837712E-17
  0.100000000000000E+01 -0.675337414025638E+00  0.155169195325615E-15
  0.100000000000000E+01 -0.560523029461074E+00  0.538773315220690E-14
  0.100000000000000E+01 -0.449536557024029E+00  0.888276959221323E-13