 VARIABLES =  $x$  (c)
 ZONE I=         441 ,DATAPACKING=POINT
 -0.100000000000000E+01 -0.100000000000000E+01  0.000000000000000E+00
 -0.100000000000000E+01 -0.975060457533844E+00  0.000000000000000E+00
 -0.100000000000000E+01 -0.904141431802467E+00  0.000000000000000E+00
 -0.100000000000000E+01 -0.798443291855323E+00  0.000000000000000E+00
 -0.100000000000000E+01 -0.675337414025638E+00  0.000000000000000E+00
 -0.100000000000000E+01 -0.560523029461074E+00  0.000000000000000E+00
 -0.100000000000000E+01 -0.449536557024029E+00  0.000000000000000E+00
 -0.100000000000000E+01 -0.337641464801303E+00  0.000000000000000E+00
 -0.100000000000000E+01 -0.224951994744527E+00  0.000000000000000E+00
 -0.100000000000000E+01 -0.112343328682423E+00  0.000000000000000E+00
 -0.100000000000000E+01  0.414186545644071E-17  0.000000000000000E+00
 -0.100000000000000E+01  0.112343328682423E+00  0.000000000000000E+00
 -0.100000000000000E+01  0.224951994744527E+00  0.000000000000000E+00
 -0.100000000000000E+01  0.337641464801303E+00  0.000000000000000E+00
 -0.100000000000000E+01  0.449536557024029E+00  0.000000000000000E+00
 -0.100000000000000E+01  0.560523029461074E+00  0.000000000000000E+00
 -0.100000000000000E+01  0.675337414025638E+00  0.000000000000000E+00
 -0.100000000000000E+01  0.798443291855323E+00  0.000000000000000E+00
 -0.100000000000000E+01  0.904141431802467E+00  0.000000000000000E+00
 -0.100000000000000E+01  0.975060457533844E+00  0.000000000000000E+00
 -0.100000000000000E+01  0.100000000000000E+01  0.000000000000000E+00
 -0.975060457533844E+00 -0.100000000000000E+01  0.000000000000000E+00
 -0.975060457533844E+00 -0.975060457533844E+00 -0.154988060130362E-10
 -0.975060457533844E+00 -0.904141431802467E+00 -0.790642872514280E-10
 -0.975060457533844E+00 -0.798443291855323E+00 -0.370738094206638E-09
 -0.975060457533844E+00 -0.675337414025638E+00 -0.168745361561263E-08
 -0.975060457533844E+00 -0.560523029461074E+00 -0.551345489989570E-08
 -0.975060457533844E+00 -0.449536557024029E+00 -0.140379334992003E-07
 -0.975060457533844E+00 -0.337641464801303E+00 -0.292504704469188E-07
 -0.975060457533844E+00 -0.224951994744527E+00 -0.496247718879677E-07
 -0.975060457533844E+00 -0.112343328682423E+00 -0.681273578111689E-07
 -0.975060457533844E+00  0.414186545644071E-17 -0.756960644182399E-07
 -0.975060457533844E+00  0.112343328682423E+00 -0.681273578111796E-07
 -0.975060457533844E+00  0.224951994744527E+00 -0.496247718879745E-07
 -0.975060457533844E+00  0.337641464801303E+00 -0.292504704469211E-07
 -0.975060457533844E+00  0.449536557024029E+00 -0.140379334992008E-07
 -0.975060457533844E+00  0.560523029461074E+00 -0.551345489989564E-08
 -0.975060457533844E+00  0.675337414025638E+00 -0.168745361561268E-08
 -0.975060457533844E+00  0.798443291855323E+00 -0.370738094206695E-09
 -0.975060457533844E+00  0.904141431802467E+00 -0.790642872514283E-10
 -0.975060457533844E+00  0.975060457533844E+00 -0.154988060130346E-10
 -0.975060457533844E+00  0.100000000000000E+01  0.000000000000000E+00
 -0.904141431802467E+00 -0.100000000000000E+01  0.000000000000000E+00
 -0.904141431802467E+00 -0.975060457533844E+00  0.108546655949271E-09
 -0.904141431802467E+00 -0.904141431802467E+00  0.553730655301218E-09
 -0.904141431802467E+00 -0.798443291855323E+00  0.259648264698009E-08
 -0.904141431802467E+00 -0.675337414025638E+00  0.118181653097568E-07
 -0.904141431802467E+00 -0.560523029461074E+00  0.386137559763267E-07
 -0.904141431802467E+00 -0.449536557024029E+00  0.983153672683676E-07
 -0.904141431802467E+00 -0.337641464801303E+00  0.204857129839578E-06
 -0.904141431802467E+00 -0.224951994744527E+00  0.347549568813869E-06
 -0.904141431802467E+00 -0.112343328682423E+00  0.477133355096745E-06
 -0.904141431802467E+00  0.414186545644071E-17  0.530141170625718E-06
 -0.904141431802467E+00  0.112343328682423E+00  0.477133355096800E-06
 -0.904141431802467E+00  0.224951994744527E+00  0.347549568813901E-06
 -0.904141431802467E+00  0.337641464801303E+00  0.204857129839586E-06
 -0.904141431802467E+00  0.449536557024029E+00  0.983153672683687E-07
 -0.904141431802467E+00  0.560523029461074E+00  0.386137559763268E-07
 -0.904141431802467E+00  0.675337414025638E+00  0.118181653097571E-07
 -0.904141431802467E+00  0.798443291855323E+00  0.259648264698024E-08
 -0.904141431802467E+00  0.904141431802467E+00  0.553730655301161E-09
 -0.904141431802467E+00  0.975060457533844E+00  0.108546655949247E-09
 -0.904141431802467E+00  0.100000000000000E+01  0.000000000000000E+00
 -0.798443291855323E+00 -0.100000000000000E+01  0.000000000000000E+00
 -0.798443291855323E+00 -0.975060457533844E+00 -0.151954829119460E-09
 -0.798443291855323E+00 -0.904141431802467E+00 -0.775169407583020E-09
 -0.798443291855323E+00 -0.798443291855323E+00 -0.363482477678986E-08
 -0.798443291855323E+00 -0.675337414025638E+00 -0.165442892043545E-07
 -0.798443291855323E+00 -0.560523029461074E+00 -0.540555260505635E-07
 -0.798443291855323E+00 -0.449536557024029E+00 -0.137632010637147E-06
 -0.798443291855323E+00 -0.337641464801303E+00 -0.286780178492368E-06
 -0.798443291855323E+00 -0.224951994744527E+00 -0.486535797907443E-06
 -0.798443291855323E+00 -0.112343328682423E+00 -0.667940570502491E-06
 -0.798443291855323E+00  0.414186545644071E-17 -0.742146387356610E-06
 -0.798443291855323E+00  0.112343328682423E+00 -0.667940570502540E-06
 -0.798443291855323E+00  0.224951994744527E+00 -0.486535797907477E-06
 -0.798443291855323E+00  0.337641464801303E+00 -0.286780178492381E-06
 -0.798443291855323E+00  0.449536557024029E+00 -0.137632010637150E-06
 -0.798443291855323E+00  0.560523029461074E+00 -0.540555260505634E-07
 -0.798443291855323E+00  0.675337414025638E+00 -0.165442892043548E-07
 -0.798443291855323E+00  0.798443291855323E+00 -0.363482477679014E-08
 -0.798443291855323E+00  0.904141431802467E+00 -0.775169407583044E-09
 -0.798443291855323E+00  0.975060457533844E+00 -0.151954829119459E-09
 -0.798443291855323E+00  0.100000000000000E+01  0.000000000000000E+00
 -0.675337414025638E+00 -0.100000000000000E+01  0.000000000000000E+00
 -0.675337414025638E+00 -0.975060457533844E+00  0.114627579316066E-09
 -0.675337414025638E+00 -0.904141431802467E+00  0.584751356638803E-09
 -0.675337414025638E+00 -0.798443291855323E+00  0.274194089399298E-08
 -0.675337414025638E+00 -0.675337414025638E+00  0.124802336814730E-07
 -0.675337414025638E+00 -0.560523029461074E+00  0.407769461780748E-07
 -0.675337414025638E+00 -0.449536557024029E+00  0.103823114080891E-06
 -0.675337414025638E+00 -0.337641464801303E+00  0.216333474149862E-06
 -0.675337414025638E+00 -0.224951994744527E+00  0.367019713799172E-06
 -0.675337414025638E+00 -0.112343328682423E+00  0.503862937723762E-06
 -0.675337414025638E+00  0.414186545644071E-17  0.559840313913122E-06
 -0.675337414025638E+00  0.112343328682423E+00  0.503862937723822E-06
 -0.675337414025638E+00  0.224951994744527E+00  0.367019713799207E-06
 -0.675337414025638E+00  0.337641464801303E+00  0.216333474149873E-06
 -0.675337414025638E+00  0.449536557024029E+00  0.103823114080894E-06
 -0.675337414025638E+00  0.560523029461074E+00  0.407769461780751E-07
 -0.675337414025638E+00  0.675337414025638E+00  0.124802336814739E-07
 -0.675337414025638E+00  0.798443291855323E+00  0.274194089399346E-08
 -0.675337414025638E+00  0.904141431802467E+00  0.584751356638841E-09
 -0.675337414025638E+00  0.975060457533844E+00  0.114627579316062E-09
 -0.675337414025638E+00  0.100000000000000E+01  0.000000000000000E+00
 -0.560523029461074E+00 -0.100000000000000E+01  0.000000000000000E+00
 -0.560523029461074E+00 -0.975060457533844E+00  0.684695325689566E-10
 -0.560523029461074E+00 -0.904141431802467E+00  0.349284637556371E-09
 -0.560523029461074E+00 -0.798443291855323E+00  0.163782069699810E-08
 -0.560523029461074E+00 -0.675337414025638E+00  0.745471440845906E-08
 -0.560523029461074E+00 -0.560523029461074E+00  0.243569562656332E-07
 -0.560523029461074E+00 -0.449536557024029E+00  0.620158058728588E-07
 -0.560523029461074E+00 -0.337641464801303E+00  0.129220698391064E-06
 -0.560523029461074E+00 -0.224951994744527E+00  0.219228880082611E-06
 -0.560523029461074E+00 -0.112343328682423E+00  0.300968328341950E-06
 -0.560523029461074E+00  0.414186545644071E-17  0.334404838934453E-06
 -0.560523029461074E+00  0.112343328682423E+00  0.300968328341743E-06
 -0.560523029461074E+00  0.224951994744527E+00  0.219228880082478E-06
 -0.560523029461074E+00  0.337641464801303E+00  0.129220698391014E-06
 -0.560523029461074E+00  0.449536557024029E+00  0.620158058728482E-07
 -0.560523029461074E+00  0.560523029461074E+00  0.243569562656345E-07
 -0.560523029461074E+00  0.675337414025638E+00  0.745471440845856E-08
 -0.560523029461074E+00  0.798443291855323E+00  0.163782069699726E-08
 -0.560523029461074E+00  0.904141431802467E+00  0.349284637556461E-09
 -0.560523029461074E+00  0.975060457533844E+00  0.684695325690085E-10
 -0.560523029461074E+00  0.100000000000000E+01  0.000000000000000E+00
 -0.449536557024029E+00 -0.100000000000000E+01  0.000000000000000E+00
 -0.449536557024029E+00 -0.975060457533844E+00 -0.180256671305249E-09
 -0.449536557024029E+00 -0.904141431802467E+00 -0.919546023528041E-09
 -0.449536557024029E+00 -0.798443291855323E+00 -0.431181722277530E-08
 -0.449536557024029E+00 -0.675337414025638E+00 -0.196256927962713E-07
 -0.449536557024029E+00 -0.560523029461074E+00 -0.641234673664689E-07
 -0.449536557024029E+00 -0.449536557024029E+00 -0.163266231171413E-06
 -0.449536557024029E+00 -0.337641464801303E+00 -0.340193533569726E-06
 -0.449536557024029E+00 -0.224951994744527E+00 -0.577154027730986E-06
 -0.449536557024029E+00 -0.112343328682423E+00 -0.792345796651934E-06
 -0.449536557024029E+00  0.414186545644071E-17 -0.880372593644926E-06
 -0.449536557024029E+00  0.112343328682423E+00 -0.792345796651795E-06
 -0.449536557024029E+00  0.224951994744527E+00 -0.577154027730903E-06
 -0.449536557024029E+00  0.337641464801303E+00 -0.340193533569689E-06
 -0.449536557024029E+00  0.449536557024029E+00 -0.163266231171418E-06
 -0.449536557024029E+00  0.560523029461074E+00 -0.641234673664845E-07
 -0.449536557024029E+00  0.675337414025638E+00 -0.196256927962752E-07
 -0.449536557024029E+00  0.798443291855323E+00 -0.431181722277390E-08
 -0.449536557024029E+00  0.904141431802467E+00 -0.919546023527643E-09
 -0.449536557024029E+00  0.975060457533844E+00 -0.180256671305156E-09
 -0.449536557024029E+00  0.100000000000000E+01  0.000000000000000E+00
 -0.337641464801303E+00 -0.100000000000000E+01  0.000000000000000E+00
 -0.337641464801303E+00 -0.975060457533844E+00  0.130061785621183E-08
 -0.337641464801303E+00 -0.904141431802467E+00  0.663486103401073E-08
 -0.337641464801303E+00 -0.798443291855323E+00  0.311113379511660E-07
 -0.337641464801303E+00 -0.675337414025638E+00  0.141606544399733E-06
 -0.337641464801303E+00 -0.560523029461074E+00  0.462674231664919E-06
 -0.337641464801303E+00 -0.449536557024029E+00  0.117802544432907E-05
 -0.337641464801303E+00 -0.337641464801303E+00  0.245462045488765E-05
 -0.337641464801303E+00 -0.224951994744527E+00  0.416437681068391E-05
 -0.337641464801303E+00 -0.112343328682423E+00  0.571706386163054E-05
 -0.337641464801303E+00  0.414186545644071E-17  0.635220928485035E-05
 -0.337641464801303E+00  0.112343328682423E+00  0.571706386163031E-05
 -0.337641464801303E+00  0.224951994744527E+00  0.416437681068378E-05
 -0.337641464801303E+00  0.337641464801303E+00  0.245462045488758E-05
 -0.337641464801303E+00  0.449536557024029E+00  0.117802544432907E-05
 -0.337641464801303E+00  0.560523029461074E+00  0.462674231664939E-06
 -0.337641464801303E+00  0.675337414025638E+00  0.141606544399740E-06
 -0.337641464801303E+00  0.798443291855323E+00  0.311113379511653E-07
 -0.337641464801303E+00  0.904141431802467E+00  0.663486103401072E-08
 -0.337641464801303E+00  0.975060457533844E+00  0.130061785621183E-08
 -0.337641464801303E+00  0.100000000000000E+01  0.000000000000000E+00
 -0.224951994744527E+00 -0.100000000000000E+01  0.000000000000000E+00
 -0.224951994744527E+00 -0.975060457533844E+00 -0.147286701796259E-08
 -0.224951994744527E+00 -0.904141431802467E+00 -0.751355819179469E-08
 -0.224951994744527E+00 -0.798443291855323E+00 -0.352316113401591E-07
 -0.224951994744527E+00 -0.675337414025638E+00 -0.160360402084520E-06
 -0.224951994744527E+00 -0.560523029461074E+00 -0.523949124294528E-06
 -0.224951994744527E+00 -0.449536557024029E+00 -0.133403883729482E-05
 -0.224951994744527E+00 -0.337641464801303E+00 -0.277970141403382E-05
 -0.224951994744527E+00 -0.224951994744527E+00 -0.471589162619057E-05
 -0.224951994744527E+00 -0.112343328682423E+00 -0.647421084454331E-05
 -0.224951994744527E+00  0.414186545644071E-17 -0.719347259232021E-05
 -0.224951994744527E+00  0.112343328682423E+00 -0.647421084454306E-05
 -0.224951994744527E+00  0.224951994744527E+00 -0.471589162619054E-05
 -0.224951994744527E+00  0.337641464801303E+00 -0.277970141403383E-05
 -0.224951994744527E+00  0.449536557024029E+00 -0.133403883729490E-05
 -0.224951994744527E+00  0.560523029461074E+00 -0.523949124294609E-06
 -0.224951994744527E+00  0.675337414025638E+00 -0.160360402084554E-06
 -0.224951994744527E+00  0.798443291855323E+00 -0.352316113401643E-07
 -0.224951994744527E+00  0.904141431802467E+00 -0.751355819179565E-08
 -0.224951994744527E+00  0.975060457533844E+00 -0.147286701796278E-08
 -0.224951994744527E+00  0.100000000000000E+01  0.000000000000000E+00
 -0.112343328682423E+00 -0.100000000000000E+01  0.000000000000000E+00
 -0.112343328682423E+00 -0.975060457533844E+00 -0.174802604118972E-08
 -0.112343328682423E+00 -0.904141431802467E+00 -0.891723103112810E-08
 -0.112343328682423E+00 -0.798443291855323E+00 -0.418135345680453E-07
 -0.112343328682423E+00 -0.675337414025638E+00 -0.190318726349241E-06
 -0.112343328682423E+00 -0.560523029461074E+00 -0.621832640251849E-06
 -0.112343328682423E+00 -0.449536557024029E+00 -0.158326232138482E-05
 -0.112343328682423E+00 -0.337641464801303E+00 -0.329900183483584E-05
 -0.112343328682423E+00 -0.224951994744527E+00 -0.559690878764444E-05
 -0.112343328682423E+00 -0.112343328682423E+00 -0.768371511377363E-05
 -0.112343328682423E+00  0.414186545644071E-17 -0.853734848956652E-05
 -0.112343328682423E+00  0.112343328682423E+00 -0.768371511377404E-05
 -0.112343328682423E+00  0.224951994744527E+00 -0.559690878764440E-05
 -0.112343328682423E+00  0.337641464801303E+00 -0.329900183483576E-05
 -0.112343328682423E+00  0.449536557024029E+00 -0.158326232138468E-05
 -0.112343328682423E+00  0.560523029461074E+00 -0.621832640251730E-06
 -0.112343328682423E+00  0.675337414025638E+00 -0.190318726349186E-06
 -0.112343328682423E+00  0.798443291855323E+00 -0.418135345680351E-07
 -0.112343328682423E+00  0.904141431802467E+00 -0.891723103112694E-08
 -0.112343328682423E+00  0.975060457533844E+00 -0.174802604118948E-08
 -0.112343328682423E+00  0.100000000000000E+01  0.000000000000000E+00
  0.414186545644071E-17 -0.100000000000000E+01  0.000000000000000E+00
  0.414186545644071E-17 -0.975060457533844E+00  0.153977567030871E-07
  0.414186545644071E-17 -0.904141431802467E+00  0.785488029886696E-07
  0.414186545644071E-17 -0.798443291855323E+00  0.368320954094868E-06
  0.414186545644071E-17 -0.675337414025638E+00  0.167645176555105E-05
  0.414186545644071E-17 -0.560523029461074E+00  0.547750837568454E-05
  0.414186545644071E-17 -0.449536557024029E+00  0.139464093945350E-04
  0.414186545644071E-17 -0.337641464801303E+00  0.290597643950692E-04
  0.414186545644071E-17 -0.224951994744527E+00  0.493012306820786E-04
  0.414186545644071E-17 -0.112343328682423E+00  0.676831846871195E-04
  0.414186545644071E-17  0.414186545644071E-17  0.752025453778448E-04
  0.414186545644071E-17  0.112343328682423E+00  0.676831846871203E-04
  0.414186545644071E-17  0.224951994744527E+00  0.493012306820785E-04
  0.414186545644071E-17  0.337641464801303E+00  0.290597643950690E-04
  0.414186545644071E-17  0.449536557024029E+00  0.139464093945348E-04
  0.414186545644071E-17  0.560523029461074E+00  0.547750837568440E-05
  0.414186545644071E-17  0.675337414025638E+00  0.167645176555097E-05
  0.414186545644071E-17  0.798443291855323E+00  0.368320954094848E-06
  0.414186545644071E-17  0.904141431802467E+00  0.785488029886679E-07
  0.414186545644071E-17  0.975060457533844E+00  0.153977567030865E-07
  0.414186545644071E-17  0.100000000000000E+01  0.000000000000000E+00
  0.112343328682423E+00 -0.100000000000000E+01  0.000000000000000E+00
  0.112343328682423E+00 -0.975060457533844E+00  0.915687636668326E-07
  0.112343328682423E+00 -0.904141431802467E+00  0.467121082070475E-06
  0.112343328682423E+00 -0.798443291855323E+00  0.219036415412078E-05
  0.112343328682423E+00 -0.675337414025638E+00  0.996967402927719E-05
  0.112343328682423E+00 -0.560523029461074E+00  0.325741390904340E-04
  0.112343328682423E+00 -0.449536557024029E+00  0.829377608113071E-04
  0.112343328682423E+00 -0.337641464801303E+00  0.172815218684452E-03
  0.112343328682423E+00 -0.224951994744527E+00  0.293188989720064E-03
  0.112343328682423E+00 -0.112343328682423E+00  0.402504446026601E-03
  0.112343328682423E+00  0.414186545644071E-17  0.447221256056494E-03
  0.112343328682423E+00  0.112343328682423E+00  0.402504446026601E-03
  0.112343328682423E+00  0.224951994744527E+00  0.293188989720065E-03
  0.112343328682423E+00  0.337641464801303E+00  0.172815218684453E-03
  0.112343328682423E+00  0.449536557024029E+00  0.829377608113078E-04
  0.112343328682423E+00  0.560523029461074E+00  0.325741390904342E-04
  0.112343328682423E+00  0.675337414025638E+00  0.996967402927737E-05
  0.112343328682423E+00  0.798443291855323E+00  0.219036415412083E-05
  0.112343328682423E+00  0.904141431802467E+00  0.467121082070488E-06
  0.112343328682423E+00  0.975060457533844E+00  0.915687636668365E-07
  0.112343328682423E+00  0.100000000000000E+01  0.000000000000000E+00
  0.224951994744527E+00 -0.100000000000000E+01  0.000000000000000E+00
  0.224951994744527E+00 -0.975060457533844E+00  0.465150403942026E-06
  0.224951994744527E+00 -0.904141431802467E+00  0.237287860261018E-05
  0.224951994744527E+00 -0.798443291855323E+00  0.111265974243377E-04
  0.224951994744527E+00 -0.675337414025638E+00  0.506438844990855E-04
  0.224951994744527E+00 -0.560523029461074E+00  0.165469897082244E-03
  0.224951994744527E+00 -0.449536557024029E+00  0.421306690269629E-03
  0.224951994744527E+00 -0.337641464801303E+00  0.877865606919995E-03
  0.224951994744527E+00 -0.224951994744527E+00  0.148933949299124E-02
  0.224951994744527E+00 -0.112343328682423E+00  0.204463942458473E-02
  0.224951994744527E+00  0.414186545644071E-17  0.227179158018306E-02
  0.224951994744527E+00  0.112343328682423E+00  0.204463942458473E-02
  0.224951994744527E+00  0.224951994744527E+00  0.148933949299125E-02
  0.224951994744527E+00  0.337641464801303E+00  0.877865606919994E-03
  0.224951994744527E+00  0.449536557024029E+00  0.421306690269628E-03
  0.224951994744527E+00  0.560523029461074E+00  0.165469897082244E-03
  0.224951994744527E+00  0.675337414025638E+00  0.506438844990855E-04
  0.224951994744527E+00  0.798443291855323E+00  0.111265974243378E-04
  0.224951994744527E+00  0.904141431802467E+00  0.237287860261022E-05
  0.224951994744527E+00  0.975060457533844E+00  0.465150403942032E-06
  0.224951994744527E+00  0.100000000000000E+01  0.000000000000000E+00
  0.337641464801303E+00 -0.100000000000000E+01  0.000000000000000E+00
  0.337641464801303E+00 -0.975060457533844E+00  0.182096067810379E-05
  0.337641464801303E+00 -0.904141431802467E+00  0.928929351264099E-05
  0.337641464801303E+00 -0.798443291855323E+00  0.435581614555732E-04
  0.337641464801303E+00 -0.675337414025638E+00  0.198259576904311E-03
  0.337641464801303E+00 -0.560523029461074E+00  0.647777951954230E-03
  0.337641464801303E+00 -0.449536557024029E+00  0.164932226164713E-02
  0.337641464801303E+00 -0.337641464801303E+00  0.343664917079185E-02
  0.337641464801303E+00 -0.224951994744527E+00  0.583043382925905E-02
  0.337641464801303E+00 -0.112343328682423E+00  0.800430991284537E-02
  0.337641464801303E+00  0.414186545644071E-17  0.889356022643016E-02
  0.337641464801303E+00  0.112343328682423E+00  0.800430991284539E-02
  0.337641464801303E+00  0.224951994744527E+00  0.583043382925906E-02
  0.337641464801303E+00  0.337641464801303E+00  0.343664917079185E-02
  0.337641464801303E+00  0.449536557024029E+00  0.164932226164713E-02
  0.337641464801303E+00  0.560523029461074E+00  0.647777951954231E-03
  0.337641464801303E+00  0.675337414025638E+00  0.198259576904312E-03
  0.337641464801303E+00  0.798443291855323E+00  0.435581614555736E-04
  0.337641464801303E+00  0.904141431802467E+00  0.928929351264115E-05
  0.337641464801303E+00  0.975060457533844E+00  0.182096067810383E-05
  0.337641464801303E+00  0.100000000000000E+01  0.000000000000000E+00
  0.449536557024029E+00 -0.100000000000000E+01  0.000000000000000E+00
  0.449536557024029E+00 -0.975060457533844E+00  0.552788507044534E-05
  0.449536557024029E+00 -0.904141431802467E+00  0.281994814836866E-04
  0.449536557024029E+00 -0.798443291855323E+00  0.132229384910770E-03
  0.449536557024029E+00 -0.675337414025638E+00  0.601856024884414E-03
  0.449536557024029E+00 -0.560523029461074E+00  0.196645765719787E-02
  0.449536557024029E+00 -0.449536557024029E+00  0.500684282358460E-02
  0.449536557024029E+00 -0.337641464801303E+00  0.104326259547609E-01
  0.449536557024029E+00 -0.224951994744527E+00  0.176994311206171E-01
  0.449536557024029E+00 -0.112343328682423E+00  0.242986604603524E-01
  0.449536557024029E+00  0.414186545644071E-17  0.269981550651654E-01
  0.449536557024029E+00  0.112343328682423E+00  0.242986604603524E-01
  0.449536557024029E+00  0.224951994744527E+00  0.176994311206171E-01
  0.449536557024029E+00  0.337641464801303E+00  0.104326259547609E-01
  0.449536557024029E+00  0.449536557024029E+00  0.500684282358460E-02
  0.449536557024029E+00  0.560523029461074E+00  0.196645765719788E-02
  0.449536557024029E+00  0.675337414025638E+00  0.601856024884415E-03
  0.449536557024029E+00  0.798443291855323E+00  0.132229384910771E-03
  0.449536557024029E+00  0.904141431802467E+00  0.281994814836871E-04
  0.449536557024029E+00  0.975060457533844E+00  0.552788507044543E-05
  0.449536557024029E+00  0.100000000000000E+01  0.000000000000000E+00
  0.560523029461074E+00 -0.100000000000000E+01  0.000000000000000E+00
  0.560523029461074E+00 -0.975060457533844E+00  0.136555095899135E-04
  0.560523029461074E+00 -0.904141431802467E+00  0.696610520899938E-04
  0.560523029461074E+00 -0.798443291855323E+00  0.326645653942357E-03
  0.560523029461074E+00 -0.675337414025638E+00  0.148676222721247E-02
  0.560523029461074E+00 -0.560523029461074E+00  0.485773149197809E-02
  0.560523029461074E+00 -0.449536557024029E+00  0.123683812698105E-01
  0.560523029461074E+00 -0.337641464801303E+00  0.257716688891312E-01
  0.560523029461074E+00 -0.224951994744527E+00  0.437228249405439E-01
  0.560523029461074E+00 -0.112343328682423E+00  0.600248714343570E-01
  0.560523029461074E+00  0.414186545644071E-17  0.666934207887716E-01
  0.560523029461074E+00  0.112343328682423E+00  0.600248714343571E-01
  0.560523029461074E+00  0.224951994744527E+00  0.437228249405440E-01
  0.560523029461074E+00  0.337641464801303E+00  0.257716688891312E-01
  0.560523029461074E+00  0.449536557024029E+00  0.123683812698105E-01
  0.560523029461074E+00  0.560523029461074E+00  0.485773149197810E-02
  0.560523029461074E+00  0.675337414025638E+00  0.148676222721247E-02
  0.560523029461074E+00  0.798443291855323E+00  0.326645653942359E-03
  0.560523029461074E+00  0.904141431802467E+00  0.696610520899951E-04
  0.560523029461074E+00  0.975060457533844E+00  0.136555095899138E-04
  0.560523029461074E+00  0.100000000000000E+01  0.000000000000000E+00
  0.675337414025638E+00 -0.100000000000000E+01  0.000000000000000E+00
  0.675337414025638E+00 -0.975060457533844E+00  0.284489051233889E-04
  0.675337414025638E+00 -0.904141431802467E+00  0.145126818503473E-03
  0.675337414025638E+00 -0.798443291855323E+00  0.680510028473026E-03
  0.675337414025638E+00 -0.675337414025638E+00  0.309741333909696E-02
  0.675337414025638E+00 -0.560523029461074E+00  0.101202479091121E-01
  0.675337414025638E+00 -0.449536557024029E+00  0.257673946957632E-01
  0.675337414025638E+00 -0.337641464801303E+00  0.536908387361779E-01
  0.675337414025638E+00 -0.224951994744527E+00  0.910889842982024E-01
  0.675337414025638E+00 -0.112343328682423E+00  0.125051493783450E+00
  0.675337414025638E+00  0.414186545644071E-17  0.138944269195043E+00
  0.675337414025638E+00  0.112343328682423E+00  0.125051493783450E+00
  0.675337414025638E+00  0.224951994744527E+00  0.910889842982025E-01
  0.675337414025638E+00  0.337641464801303E+00  0.536908387361779E-01
  0.675337414025638E+00  0.449536557024029E+00  0.257673946957632E-01
  0.675337414025638E+00  0.560523029461074E+00  0.101202479091121E-01
  0.675337414025638E+00  0.675337414025638E+00  0.309741333909696E-02
  0.675337414025638E+00  0.798443291855323E+00  0.680510028473032E-03
  0.675337414025638E+00  0.904141431802467E+00  0.145126818503476E-03
  0.675337414025638E+00  0.975060457533844E+00  0.284489051233895E-04
  0.675337414025638E+00  0.100000000000000E+01  0.000000000000000E+00
  0.798443291855323E+00 -0.100000000000000E+01  0.000000000000000E+00
  0.798443291855323E+00 -0.975060457533844E+00  0.489344139349619E-04
  0.798443291855323E+00 -0.904141431802467E+00  0.249629846185815E-03
  0.798443291855323E+00 -0.798443291855323E+00  0.117053219741125E-02
  0.798443291855323E+00 -0.675337414025638E+00  0.532780104797583E-02
  0.798443291855323E+00 -0.560523029461074E+00  0.174076435790837E-01
  0.798443291855323E+00 -0.449536557024029E+00  0.443219995099651E-01
  0.798443291855323E+00 -0.337641464801303E+00  0.923525779915080E-01
  0.798443291855323E+00 -0.224951994744527E+00  0.156680408143327E+00
  0.798443291855323E+00 -0.112343328682423E+00  0.215098666825246E+00
  0.798443291855323E+00  0.414186545644071E-17  0.238995362331413E+00
  0.798443291855323E+00  0.112343328682423E+00  0.215098666825246E+00
  0.798443291855323E+00  0.224951994744527E+00  0.156680408143327E+00
  0.798443291855323E+00  0.337641464801303E+00  0.923525779915081E-01
  0.798443291855323E+00  0.449536557024029E+00  0.443219995099652E-01
  0.798443291855323E+00  0.560523029461074E+00  0.174076435790838E-01
  0.798443291855323E+00  0.675337414025638E+00  0.532780104797585E-02
  0.798443291855323E+00  0.798443291855323E+00  0.117053219741126E-02
  0.798443291855323E+00  0.904141431802467E+00  0.249629846185820E-03
  0.798443291855323E+00  0.975060457533844E+00  0.489344139349628E-04
  0.798443291855323E+00  0.100000000000000E+01  0.000000000000000E+00
  0.904141431802467E+00 -0.100000000000000E+01  0.000000000000000E+00
  0.904141431802467E+00 -0.975060457533844E+00  0.634743503660302E-04
  0.904141431802467E+00 -0.904141431802467E+00  0.323802637949930E-03
  0.904141431802467E+00 -0.798443291855323E+00  0.151833372148900E-02
  0.904141431802467E+00 -0.675337414025638E+00  0.691085645610857E-02
  0.904141431802467E+00 -0.560523029461074E+00  0.225799959395173E-01
  0.904141431802467E+00 -0.449536557024029E+00  0.574914441768627E-01
  0.904141431802467E+00 -0.337641464801303E+00  0.119793401501561E+00
  0.904141431802467E+00 -0.224951994744527E+00  0.203235030894176E+00
  0.904141431802467E+00 -0.112343328682423E+00  0.279011171320208E+00
  0.904141431802467E+00  0.414186545644071E-17  0.310008318364327E+00
  0.904141431802467E+00  0.112343328682423E+00  0.279011171320209E+00
  0.904141431802467E+00  0.224951994744527E+00  0.203235030894176E+00
  0.904141431802467E+00  0.337641464801303E+00  0.119793401501561E+00
  0.904141431802467E+00  0.449536557024029E+00  0.574914441768627E-01
  0.904141431802467E+00  0.560523029461074E+00  0.225799959395173E-01
  0.904141431802467E+00  0.675337414025638E+00  0.691085645610859E-02
  0.904141431802467E+00  0.798443291855323E+00  0.151833372148901E-02
  0.904141431802467E+00  0.904141431802467E+00  0.323802637949936E-03
  0.904141431802467E+00  0.975060457533844E+00  0.634743503660315E-04
  0.904141431802467E+00  0.100000000000000E+01  0.000000000000000E+00
  0.975060457533844E+00 -0.100000000000000E+01  0.000000000000000E+00
  0.975060457533844E+00 -0.975060457533844E+00  0.680128771631070E-04
  0.975060457533844E+00 -0.904141431802467E+00  0.346955091504018E-03
  0.975060457533844E+00 -0.798443291855323E+00  0.162689723158796E-02
  0.975060457533844E+00 -0.675337414025638E+00  0.740499475015269E-02
  0.975060457533844E+00 -0.560523029461074E+00  0.241945050459763E-01
  0.975060457533844E+00 -0.449536557024029E+00  0.616021827481332E-01
  0.975060457533844E+00 -0.337641464801303E+00  0.128358838734526E+00
  0.975060457533844E+00 -0.224951994744527E+00  0.217766690233687E+00
  0.975060457533844E+00 -0.112343328682423E+00  0.298960956931763E+00
  0.975060457533844E+00  0.414186545644071E-17  0.332174454081039E+00
  0.975060457533844E+00  0.112343328682423E+00  0.298960956931764E+00
  0.975060457533844E+00  0.224951994744527E+00  0.217766690233687E+00
  0.975060457533844E+00  0.337641464801303E+00  0.128358838734526E+00
  0.975060457533844E+00  0.449536557024029E+00  0.616021827481333E-01
  0.975060457533844E+00  0.560523029461074E+00  0.241945050459763E-01
  0.975060457533844E+00  0.675337414025638E+00  0.740499475015271E-02
  0.975060457533844E+00  0.798443291855323E+00  0.162689723158798E-02
  0.975060457533844E+00  0.904141431802467E+00  0.346955091504025E-03
  0.975060457533844E+00  0.975060457533844E+00  0.680128771631084E-04
  0.975060457533844E+00  0.100000000000000E+01  0.000000000000000E+00
  0.100000000000000E+01 -0.100000000000000E+01  0.000000000000000E+00
  0.100000000000000E+01 -0.975060457533844E+00  0.683043431476607E-04
  0.100000000000000E+01 -0.904141431802467E+00  0.348441951216635E-03
  0.100000000000000E+01 -0.798443291855323E+00  0.163386922305552E-02
  0.100000000000000E+01 -0.675337414025638E+00  0.743672850636688E-02
  0.100000000000000E+01 -0.560523029461074E+00  0.242981894579507E-01
  0.100000000000000E+01 -0.449536557024029E+00  0.618661760021149E-01