 VARIABLES =  $x$  (d)
 ZONE I=         441 ,DATAPACKING=POINT
 -0.100000000000000E+01 -0.100000000000000E+01  0.000000000000000E+00
 -0.100000000000000E+01 -0.975060457533844E+00  0.000000000000000E+00
 -0.100000000000000E+01 -0.904141431802467E+00  0.000000000000000E+00
 -0.100000000000000E+01 -0.798443291855323E+00  0.000000000000000E+00
 -0.100000000000000E+01 -0.675337414025638E+00  0.000000000000000E+00
 -0.100000000000000E+01 -0.560523029461074E+00  0.000000000000000E+00
 -0.100000000000000E+01 -0.449536557024029E+00  0.000000000000000E+00
 -0.100000000000000E+01 -0.337641464801303E+00  0.000000000000000E+00
 -0.100000000000000E+01 -0.224951994744527E+00  0.000000000000000E+00
 -0.100000000000000E+01 -0.112343328682423E+00  0.000000000000000E+00
 -0.100000000000000E+01  0.414186545644071E-17  0.000000000000000E+00
 -0.100000000000000E+01  0.112343328682423E+00  0.000000000000000E+00
 -0.100000000000000E+01  0.224951994744527E+00  0.000000000000000E+00
 -0.100000000000000E+01  0.337641464801303E+00  0.000000000000000E+00
 -0.100000000000000E+01  0.449536557024029E+00  0.000000000000000E+00
 -0.100000000000000E+01  0.560523029461074E+00  0.000000000000000E+00
 -0.100000000000000E+01  0.675337414025638E+00  0.000000000000000E+00
 -0.100000000000000E+01  0.798443291855323E+00  0.000000000000000E+00
 -0.100000000000000E+01  0.904141431802467E+00  0.000000000000000E+00
 -0.100000000000000E+01  0.975060457533844E+00  0.000000000000000E+00
 -0.100000000000000E+01  0.100000000000000E+01  0.000000000000000E+00
 -0.975060457533844E+00 -0.100000000000000E+01  0.000000000000000E+00
 -0.975060457533844E+00 -0.975060457533844E+00 -0.873275515658878E-11
 -0.975060457533844E+00 -0.904141431802467E+00 -0.404824061220933E-10
 -0.975060457533844E+00 -0.798443291855323E+00 -0.147125410095868E-09
 -0.975060457533844E+00 -0.675337414025638E+00 -0.503587352587613E-09
 -0.975060457533844E+00 -0.560523029461074E+00 -0.131379942323875E-08
 -0.975060457533844E+00 -0.449536557024029E+00 -0.280161312431127E-08
 -0.975060457533844E+00 -0.337641464801303E+00 -0.507940194906288E-08
 -0.975060457533844E+00 -0.224951994744527E+00 -0.779556011660113E-08
 -0.975060457533844E+00 -0.112343328682423E+00 -0.100771238824527E-07
 -0.975060457533844E+00  0.414186545644071E-17 -0.109746494332439E-07
 -0.975060457533844E+00  0.112343328682423E+00 -0.100771238824495E-07
 -0.975060457533844E+00  0.224951994744527E+00 -0.779556011659724E-08
 -0.975060457533844E+00  0.337641464801303E+00 -0.507940194905974E-08
 -0.975060457533844E+00  0.449536557024029E+00 -0.280161312430946E-08
 -0.975060457533844E+00  0.560523029461074E+00 -0.131379942323790E-08
 -0.975060457533844E+00  0.675337414025638E+00 -0.503587352587240E-09
 -0.975060457533844E+00  0.798443291855323E+00 -0.147125410095721E-09
 -0.975060457533844E+00  0.904141431802467E+00 -0.404824061220448E-10
 -0.975060457533844E+00  0.975060457533844E+00 -0.873275515657786E-11
 -0.975060457533844E+00  0.100000000000000E+01  0.000000000000000E+00
 -0.904141431802467E+00 -0.100000000000000E+01  0.000000000000000E+00
 -0.904141431802467E+00 -0.975060457533844E+00  0.105176823061968E-10
 -0.904141431802467E+00 -0.904141431802467E+00  0.487567877847883E-10
 -0.904141431802467E+00 -0.798443291855323E+00  0.177197040430576E-09
 -0.904141431802467E+00 -0.675337414025638E+00  0.606517873706498E-09
 -0.904141431802467E+00 -0.560523029461074E+00  0.158233292951864E-08
 -0.904141431802467E+00 -0.449536557024029E+00  0.337424777859765E-08
 -0.904141431802467E+00 -0.337641464801303E+00  0.611760448007912E-08
 -0.904141431802467E+00 -0.224951994744527E+00  0.938893092032589E-08
 -0.904141431802467E+00 -0.112343328682423E+00  0.121368342002350E-07
 -0.904141431802467E+00  0.414186545644071E-17  0.132178092106543E-07
 -0.904141431802467E+00  0.112343328682423E+00  0.121368342002243E-07
 -0.904141431802467E+00  0.224951994744527E+00  0.938893092031099E-08
 -0.904141431802467E+00  0.337641464801303E+00  0.611760448006538E-08
 -0.904141431802467E+00  0.449536557024029E+00  0.337424777858848E-08
 -0.904141431802467E+00  0.560523029461074E+00  0.158233292951357E-08
 -0.904141431802467E+00  0.675337414025638E+00  0.606517873703994E-09
 -0.904141431802467E+00  0.798443291855323E+00  0.177197040429584E-09
 -0.904141431802467E+00  0.904141431802467E+00  0.487567877844746E-10
 -0.904141431802467E+00  0.975060457533844E+00  0.105176823061272E-10
 -0.904141431802467E+00  0.100000000000000E+01  0.000000000000000E+00
 -0.798443291855323E+00 -0.100000000000000E+01  0.000000000000000E+00
 -0.798443291855323E+00 -0.975060457533844E+00 -0.487426937180223E-10
 -0.798443291855323E+00 -0.904141431802467E+00 -0.225956355106886E-09
 -0.798443291855323E+00 -0.798443291855323E+00 -0.821194309203497E-09
 -0.798443291855323E+00 -0.675337414025638E+00 -0.281082016837870E-08
 -0.798443291855323E+00 -0.560523029461074E+00 -0.733309506429153E-08
 -0.798443291855323E+00 -0.449536557024029E+00 -0.156374672358299E-07
 -0.798443291855323E+00 -0.337641464801303E+00 -0.283511599283667E-07
 -0.798443291855323E+00 -0.224951994744527E+00 -0.435116523939901E-07
 -0.798443291855323E+00 -0.112343328682423E+00 -0.562464153183231E-07
 -0.798443291855323E+00  0.414186545644071E-17 -0.612560386681517E-07
 -0.798443291855323E+00  0.112343328682423E+00 -0.562464153183059E-07
 -0.798443291855323E+00  0.224951994744527E+00 -0.435116523939694E-07
 -0.798443291855323E+00  0.337641464801303E+00 -0.283511599283509E-07
 -0.798443291855323E+00  0.449536557024029E+00 -0.156374672358214E-07
 -0.798443291855323E+00  0.560523029461074E+00 -0.733309506428787E-08
 -0.798443291855323E+00  0.675337414025638E+00 -0.281082016837719E-08
 -0.798443291855323E+00  0.798443291855323E+00 -0.821194309202888E-09
 -0.798443291855323E+00  0.904141431802467E+00 -0.225956355106677E-09
 -0.798443291855323E+00  0.975060457533844E+00 -0.487426937179744E-10
 -0.798443291855323E+00  0.100000000000000E+01  0.000000000000000E+00
 -0.675337414025638E+00 -0.100000000000000E+01  0.000000000000000E+00
 -0.675337414025638E+00 -0.975060457533844E+00  0.785639116124499E-10
 -0.675337414025638E+00 -0.904141431802467E+00  0.364198482360940E-09
 -0.675337414025638E+00 -0.798443291855323E+00  0.132360835555253E-08
 -0.675337414025638E+00 -0.675337414025638E+00  0.453050513787844E-08
 -0.675337414025638E+00 -0.560523029461074E+00  0.118195482794761E-07
 -0.675337414025638E+00 -0.449536557024029E+00  0.252046095838625E-07
 -0.675337414025638E+00 -0.337641464801303E+00  0.456966530380890E-07
 -0.675337414025638E+00 -0.224951994744527E+00  0.701324701474578E-07
 -0.675337414025638E+00 -0.112343328682423E+00  0.906584746818164E-07
 -0.675337414025638E+00  0.414186545644071E-17  0.987330302975030E-07
 -0.675337414025638E+00  0.112343328682423E+00  0.906584746818037E-07
 -0.675337414025638E+00  0.224951994744527E+00  0.701324701474407E-07
 -0.675337414025638E+00  0.337641464801303E+00  0.456966530380734E-07
 -0.675337414025638E+00  0.449536557024029E+00  0.252046095838525E-07
 -0.675337414025638E+00  0.560523029461074E+00  0.118195482794710E-07
 -0.675337414025638E+00  0.675337414025638E+00  0.453050513787609E-08
 -0.675337414025638E+00  0.798443291855323E+00  0.132360835555160E-08
 -0.675337414025638E+00  0.904141431802467E+00  0.364198482360642E-09
 -0.675337414025638E+00  0.975060457533844E+00  0.785639116123828E-10
 -0.675337414025638E+00  0.100000000000000E+01  0.000000000000000E+00
 -0.560523029461074E+00 -0.100000000000000E+01  0.000000000000000E+00
 -0.560523029461074E+00 -0.975060457533844E+00 -0.143253493838679E-09
 -0.560523029461074E+00 -0.904141431802467E+00 -0.664079778256851E-09
 -0.560523029461074E+00 -0.798443291855323E+00 -0.241346843481027E-08
 -0.560523029461074E+00 -0.675337414025638E+00 -0.826092632901140E-08
 -0.560523029461074E+00 -0.560523029461074E+00 -0.215517727915864E-07
 -0.560523029461074E+00 -0.449536557024029E+00 -0.459581030730388E-07
 -0.560523029461074E+00 -0.337641464801303E+00 -0.833233095944056E-07
 -0.560523029461074E+00 -0.224951994744527E+00 -0.127879595736961E-06
 -0.560523029461074E+00 -0.112343328682423E+00 -0.165306726846487E-06
 -0.560523029461074E+00  0.414186545644071E-17 -0.180029877231767E-06
 -0.560523029461074E+00  0.112343328682423E+00 -0.165306726846424E-06
 -0.560523029461074E+00  0.224951994744527E+00 -0.127879595736886E-06
 -0.560523029461074E+00  0.337641464801303E+00 -0.833233095943459E-07
 -0.560523029461074E+00  0.449536557024029E+00 -0.459581030730051E-07
 -0.560523029461074E+00  0.560523029461074E+00 -0.215517727915707E-07
 -0.560523029461074E+00  0.675337414025638E+00 -0.826092632900452E-08
 -0.560523029461074E+00  0.798443291855323E+00 -0.241346843480756E-08
 -0.560523029461074E+00  0.904141431802467E+00 -0.664079778255969E-09
 -0.560523029461074E+00  0.975060457533844E+00 -0.143253493838481E-09
 -0.560523029461074E+00  0.100000000000000E+01  0.000000000000000E+00
 -0.449536557024029E+00 -0.100000000000000E+01  0.000000000000000E+00
 -0.449536557024029E+00 -0.975060457533844E+00  0.271086453450809E-09
 -0.449536557024029E+00 -0.904141431802467E+00  0.125667463125237E-08
 -0.449536557024029E+00 -0.798443291855323E+00  0.456713882769304E-08
 -0.449536557024029E+00 -0.675337414025638E+00  0.156326043573283E-07
 -0.449536557024029E+00 -0.560523029461074E+00  0.407836025073058E-07
 -0.449536557024029E+00 -0.449536557024029E+00  0.869690405300917E-07
 -0.449536557024029E+00 -0.337641464801303E+00  0.157677270958775E-06
 -0.449536557024029E+00 -0.224951994744527E+00  0.241993575753266E-06
 -0.449536557024029E+00 -0.112343328682423E+00  0.312818989263396E-06
 -0.449536557024029E+00  0.414186545644071E-17  0.340680414457151E-06
 -0.449536557024029E+00  0.112343328682423E+00  0.312818989263300E-06
 -0.449536557024029E+00  0.224951994744527E+00  0.241993575753165E-06
 -0.449536557024029E+00  0.337641464801303E+00  0.157677270958707E-06
 -0.449536557024029E+00  0.449536557024029E+00  0.869690405300642E-07
 -0.449536557024029E+00  0.560523029461074E+00  0.407836025072998E-07
 -0.449536557024029E+00  0.675337414025638E+00  0.156326043573284E-07
 -0.449536557024029E+00  0.798443291855323E+00  0.456713882769325E-08
 -0.449536557024029E+00  0.904141431802467E+00  0.125667463125236E-08
 -0.449536557024029E+00  0.975060457533844E+00  0.271086453450799E-09
 -0.449536557024029E+00  0.100000000000000E+01  0.000000000000000E+00
 -0.337641464801303E+00 -0.100000000000000E+01  0.000000000000000E+00
 -0.337641464801303E+00 -0.975060457533844E+00  0.182160251047103E-09
 -0.337641464801303E+00 -0.904141431802467E+00  0.844439716702753E-09
 -0.337641464801303E+00 -0.798443291855323E+00  0.306895149879977E-08
 -0.337641464801303E+00 -0.675337414025638E+00  0.105045428937297E-07
 -0.337641464801303E+00 -0.560523029461074E+00  0.274051015802363E-07
 -0.337641464801303E+00 -0.449536557024029E+00  0.584400416284175E-07
 -0.337641464801303E+00 -0.337641464801303E+00  0.105953409860770E-06
 -0.337641464801303E+00 -0.224951994744527E+00  0.162610911499915E-06
 -0.337641464801303E+00 -0.112343328682423E+00  0.210203023384021E-06
 -0.337641464801303E+00  0.414186545644071E-17  0.228924891767386E-06
 -0.337641464801303E+00  0.112343328682423E+00  0.210203023384129E-06
 -0.337641464801303E+00  0.224951994744527E+00  0.162610911500017E-06
 -0.337641464801303E+00  0.337641464801303E+00  0.105953409860838E-06
 -0.337641464801303E+00  0.449536557024029E+00  0.584400416284440E-07
 -0.337641464801303E+00  0.560523029461074E+00  0.274051015802429E-07
 -0.337641464801303E+00  0.675337414025638E+00  0.105045428937300E-07
 -0.337641464801303E+00  0.798443291855323E+00  0.306895149879928E-08
 -0.337641464801303E+00  0.904141431802467E+00  0.844439716702584E-09
 -0.337641464801303E+00  0.975060457533844E+00  0.182160251047062E-09
 -0.337641464801303E+00  0.100000000000000E+01  0.000000000000000E+00
 -0.224951994744527E+00 -0.100000000000000E+01  0.000000000000000E+00
 -0.224951994744527E+00 -0.975060457533844E+00  0.516117185979905E-10
 -0.224951994744527E+00 -0.904141431802467E+00  0.239256280423026E-09
 -0.224951994744527E+00 -0.798443291855323E+00  0.869530257376407E-09
 -0.224951994744527E+00 -0.675337414025638E+00  0.297626647580479E-08
 -0.224951994744527E+00 -0.560523029461074E+00  0.776472463231601E-08
 -0.224951994744527E+00 -0.449536557024029E+00  0.165578961065685E-07
 -0.224951994744527E+00 -0.337641464801303E+00  0.300199228887100E-07
 -0.224951994744527E+00 -0.224951994744527E+00  0.460727694008116E-07
 -0.224951994744527E+00 -0.112343328682423E+00  0.595571068458944E-07
 -0.224951994744527E+00  0.414186545644071E-17  0.648615991588156E-07
 -0.224951994744527E+00  0.112343328682423E+00  0.595571068456789E-07
 -0.224951994744527E+00  0.224951994744527E+00  0.460727694006200E-07
 -0.224951994744527E+00  0.337641464801303E+00  0.300199228885945E-07
 -0.224951994744527E+00  0.449536557024029E+00  0.165578961065332E-07
 -0.224951994744527E+00  0.560523029461074E+00  0.776472463231162E-08
 -0.224951994744527E+00  0.675337414025638E+00  0.297626647580909E-08
 -0.224951994744527E+00  0.798443291855323E+00  0.869530257379955E-09
 -0.224951994744527E+00  0.904141431802467E+00  0.239256280424285E-09
 -0.224951994744527E+00  0.975060457533844E+00  0.516117185982980E-10
 -0.224951994744527E+00  0.100000000000000E+01  0.000000000000000E+00
 -0.112343328682423E+00 -0.100000000000000E+01  0.000000000000000E+00
 -0.112343328682423E+00 -0.975060457533844E+00  0.865685626434560E-09
 -0.112343328682423E+00 -0.904141431802467E+00  0.401305616904075E-08
 -0.112343328682423E+00 -0.798443291855323E+00  0.145846698445602E-07
 -0.112343328682423E+00 -0.675337414025638E+00  0.499210514916491E-07
 -0.112343328682423E+00 -0.560523029461074E+00  0.130238076021403E-06
 -0.112343328682423E+00 -0.449536557024029E+00  0.277726335756191E-06
 -0.112343328682423E+00 -0.337641464801303E+00  0.503525511332551E-06
 -0.112343328682423E+00 -0.224951994744527E+00  0.772780617247774E-06
 -0.112343328682423E+00 -0.112343328682423E+00  0.998954003723242E-06
 -0.112343328682423E+00  0.414186545644071E-17  0.108792648650152E-05
 -0.112343328682423E+00  0.112343328682423E+00  0.998954003723454E-06
 -0.112343328682423E+00  0.224951994744527E+00  0.772780617247912E-06
 -0.112343328682423E+00  0.337641464801303E+00  0.503525511332622E-06
 -0.112343328682423E+00  0.449536557024029E+00  0.277726335756191E-06
 -0.112343328682423E+00  0.560523029461074E+00  0.130238076021392E-06
 -0.112343328682423E+00  0.675337414025638E+00  0.499210514916359E-07
 -0.112343328682423E+00  0.798443291855323E+00  0.145846698445517E-07
 -0.112343328682423E+00  0.904141431802467E+00  0.401305616903800E-08
 -0.112343328682423E+00  0.975060457533844E+00  0.865685626433883E-09
 -0.112343328682423E+00  0.100000000000000E+01  0.000000000000000E+00
  0.414186545644071E-17 -0.100000000000000E+01  0.000000000000000E+00
  0.414186545644071E-17 -0.975060457533844E+00  0.989794010797317E-09
  0.414186545644071E-17 -0.904141431802467E+00  0.458838505599268E-08
  0.414186545644071E-17 -0.798443291855323E+00  0.166755908040992E-07
  0.414186545644071E-17 -0.675337414025638E+00  0.570779494490008E-07
  0.414186545644071E-17 -0.560523029461074E+00  0.148909573242744E-06
  0.414186545644071E-17 -0.449536557024029E+00  0.317542396894420E-06
  0.414186545644071E-17 -0.337641464801303E+00  0.575713136654914E-06
  0.414186545644071E-17 -0.224951994744527E+00  0.883569843775431E-06
  0.414186545644071E-17 -0.112343328682423E+00  0.114216844783654E-05
  0.414186545644071E-17  0.414186545644071E-17  0.124389641986688E-05
  0.414186545644071E-17  0.112343328682423E+00  0.114216844783628E-05
  0.414186545644071E-17  0.224951994744527E+00  0.883569843775296E-06
  0.414186545644071E-17  0.337641464801303E+00  0.575713136654835E-06
  0.414186545644071E-17  0.449536557024029E+00  0.317542396894421E-06
  0.414186545644071E-17  0.560523029461074E+00  0.148909573242739E-06
  0.414186545644071E-17  0.675337414025638E+00  0.570779494490104E-07
  0.414186545644071E-17  0.798443291855323E+00  0.166755908041103E-07
  0.414186545644071E-17  0.904141431802467E+00  0.458838505599622E-08
  0.414186545644071E-17  0.975060457533844E+00  0.989794010798314E-09
  0.414186545644071E-17  0.100000000000000E+01  0.000000000000000E+00
  0.112343328682423E+00 -0.100000000000000E+01  0.000000000000000E+00
  0.112343328682423E+00 -0.975060457533844E+00  0.126669087903295E-08
  0.112343328682423E+00 -0.904141431802467E+00  0.587199499323260E-08
  0.112343328682423E+00 -0.798443291855323E+00  0.213406206629637E-07
  0.112343328682423E+00 -0.675337414025638E+00  0.730456195956342E-07
  0.112343328682423E+00 -0.560523029461074E+00  0.190567323545699E-06
  0.112343328682423E+00 -0.449536557024029E+00  0.406375518150428E-06
  0.112343328682423E+00 -0.337641464801303E+00  0.736770043795622E-06
  0.112343328682423E+00 -0.224951994744527E+00  0.113075029012986E-05
  0.112343328682423E+00 -0.112343328682423E+00  0.146169238136705E-05
  0.112343328682423E+00  0.414186545644071E-17  0.159187896166137E-05
  0.112343328682423E+00  0.112343328682423E+00  0.146169238136723E-05
  0.112343328682423E+00  0.224951994744527E+00  0.113075029012988E-05
  0.112343328682423E+00  0.337641464801303E+00  0.736770043795649E-06
  0.112343328682423E+00  0.449536557024029E+00  0.406375518150387E-06
  0.112343328682423E+00  0.560523029461074E+00  0.190567323545714E-06
  0.112343328682423E+00  0.675337414025638E+00  0.730456195956199E-07
  0.112343328682423E+00  0.798443291855323E+00  0.213406206629457E-07
  0.112343328682423E+00  0.904141431802467E+00  0.587199499322827E-08
  0.112343328682423E+00  0.975060457533844E+00  0.126669087903151E-08
  0.112343328682423E+00  0.100000000000000E+01  0.000000000000000E+00
  0.224951994744527E+00 -0.100000000000000E+01  0.000000000000000E+00
  0.224951994744527E+00 -0.975060457533844E+00  0.315016265097562E-07
  0.224951994744527E+00 -0.904141431802467E+00  0.146031992469069E-06
  0.224951994744527E+00 -0.798443291855323E+00  0.530724794686642E-06
  0.224951994744527E+00 -0.675337414025638E+00  0.181658826279970E-05
  0.224951994744527E+00 -0.560523029461074E+00  0.473926240240089E-05
  0.224951994744527E+00 -0.449536557024029E+00  0.101062456710574E-04
  0.224951994744527E+00 -0.337641464801303E+00  0.183229024407658E-04
  0.224951994744527E+00 -0.224951994744527E+00  0.281208868606014E-04
  0.224951994744527E+00 -0.112343328682423E+00  0.363511609730174E-04
  0.224951994744527E+00  0.414186545644071E-17  0.395888006220104E-04
  0.224951994744527E+00  0.112343328682423E+00  0.363511609730175E-04
  0.224951994744527E+00  0.224951994744527E+00  0.281208868606015E-04
  0.224951994744527E+00  0.337641464801303E+00  0.183229024407658E-04
  0.224951994744527E+00  0.449536557024029E+00  0.101062456710575E-04
  0.224951994744527E+00  0.560523029461074E+00  0.473926240240081E-05
  0.224951994744527E+00  0.675337414025638E+00  0.181658826279971E-05
  0.224951994744527E+00  0.798443291855323E+00  0.530724794686666E-06
  0.224951994744527E+00  0.904141431802467E+00  0.146031992469071E-06
  0.224951994744527E+00  0.975060457533844E+00  0.315016265097580E-07
  0.224951994744527E+00  0.100000000000000E+01  0.000000000000000E+00
  0.337641464801303E+00 -0.100000000000000E+01  0.000000000000000E+00
  0.337641464801303E+00 -0.975060457533844E+00  0.203949235827973E-06
  0.337641464801303E+00 -0.904141431802467E+00  0.945446841194536E-06
  0.337641464801303E+00 -0.798443291855323E+00  0.343604214672378E-05
  0.337641464801303E+00 -0.675337414025638E+00  0.117610367916243E-04
  0.337641464801303E+00 -0.560523029461074E+00  0.306831441278039E-04
  0.337641464801303E+00 -0.449536557024029E+00  0.654303066995854E-04
  0.337641464801303E+00 -0.337641464801303E+00  0.118626952605121E-03
  0.337641464801303E+00 -0.224951994744527E+00  0.182061500532613E-03
  0.337641464801303E+00 -0.112343328682423E+00  0.235346308425357E-03
  0.337641464801303E+00  0.414186545644071E-17  0.256307579501931E-03
  0.337641464801303E+00  0.112343328682423E+00  0.235346308425357E-03
  0.337641464801303E+00  0.224951994744527E+00  0.182061500532614E-03
  0.337641464801303E+00  0.337641464801303E+00  0.118626952605121E-03
  0.337641464801303E+00  0.449536557024029E+00  0.654303066995855E-04
  0.337641464801303E+00  0.560523029461074E+00  0.306831441278042E-04
  0.337641464801303E+00  0.675337414025638E+00  0.117610367916244E-04
  0.337641464801303E+00  0.798443291855323E+00  0.343604214672378E-05
  0.337641464801303E+00  0.904141431802467E+00  0.945446841194554E-06
  0.337641464801303E+00  0.975060457533844E+00  0.203949235827976E-06
  0.337641464801303E+00  0.100000000000000E+01  0.000000000000000E+00
  0.449536557024029E+00 -0.100000000000000E+01  0.000000000000000E+00
  0.449536557024029E+00 -0.975060457533844E+00  0.891669343781324E-06
  0.449536557024029E+00 -0.904141431802467E+00  0.413350881608680E-05
  0.449536557024029E+00 -0.798443291855323E+00  0.150224315956677E-04
  0.449536557024029E+00 -0.675337414025638E+00  0.514194422075329E-04
  0.449536557024029E+00 -0.560523029461074E+00  0.134147200054502E-03
  0.449536557024029E+00 -0.449536557024029E+00  0.286062354025958E-03
  0.449536557024029E+00 -0.337641464801303E+00  0.518638945934670E-03
  0.449536557024029E+00 -0.224951994744527E+00  0.795975810112745E-03
  0.449536557024029E+00 -0.112343328682423E+00  0.102893784748633E-02
  0.449536557024029E+00  0.414186545644071E-17  0.112058086185255E-02
  0.449536557024029E+00  0.112343328682423E+00  0.102893784748634E-02
  0.449536557024029E+00  0.224951994744527E+00  0.795975810112747E-03
  0.449536557024029E+00  0.337641464801303E+00  0.518638945934671E-03
  0.449536557024029E+00  0.449536557024029E+00  0.286062354025958E-03
  0.449536557024029E+00  0.560523029461074E+00  0.134147200054502E-03
  0.449536557024029E+00  0.675337414025638E+00  0.514194422075330E-04
  0.449536557024029E+00  0.798443291855323E+00  0.150224315956678E-04
  0.449536557024029E+00  0.904141431802467E+00  0.413350881608682E-05
  0.449536557024029E+00  0.975060457533844E+00  0.891669343781337E-06
  0.449536557024029E+00  0.100000000000000E+01  0.000000000000000E+00
  0.560523029461074E+00 -0.100000000000000E+01  0.000000000000000E+00
  0.560523029461074E+00 -0.975060457533844E+00  0.323098208451729E-05
  0.560523029461074E+00 -0.904141431802467E+00  0.149778536442446E-04
  0.560523029461074E+00 -0.798443291855323E+00  0.544340877898887E-04
  0.560523029461074E+00 -0.675337414025638E+00  0.186319399259305E-03
  0.560523029461074E+00 -0.560523029461074E+00  0.486085119649422E-03
  0.560523029461074E+00 -0.449536557024029E+00  0.103655278291485E-02
  0.560523029461074E+00 -0.337641464801303E+00  0.187929881371693E-02
  0.560523029461074E+00 -0.224951994744527E+00  0.288423460491316E-02
  0.560523029461074E+00 -0.112343328682423E+00  0.372837730474518E-02
  0.560523029461074E+00  0.414186545644071E-17  0.406044763873696E-02
  0.560523029461074E+00  0.112343328682423E+00  0.372837730474518E-02
  0.560523029461074E+00  0.224951994744527E+00  0.288423460491317E-02
  0.560523029461074E+00  0.337641464801303E+00  0.187929881371693E-02
  0.560523029461074E+00  0.449536557024029E+00  0.103655278291485E-02
  0.560523029461074E+00  0.560523029461074E+00  0.486085119649424E-03
  0.560523029461074E+00  0.675337414025638E+00  0.186319399259305E-03
  0.560523029461074E+00  0.798443291855323E+00  0.544340877898889E-04
  0.560523029461074E+00  0.904141431802467E+00  0.149778536442448E-04
  0.560523029461074E+00  0.975060457533844E+00  0.323098208451733E-05
  0.560523029461074E+00  0.100000000000000E+01  0.000000000000000E+00
  0.675337414025638E+00 -0.100000000000000E+01  0.000000000000000E+00
  0.675337414025638E+00 -0.975060457533844E+00  0.100049770941536E-04
  0.675337414025638E+00 -0.904141431802467E+00  0.463800413337067E-04
  0.675337414025638E+00 -0.798443291855323E+00  0.168559214254246E-03
  0.675337414025638E+00 -0.675337414025638E+00  0.576951921311188E-03
  0.675337414025638E+00 -0.560523029461074E+00  0.150519884011200E-02
  0.675337414025638E+00 -0.449536557024029E+00  0.320976302958664E-02
  0.675337414025638E+00 -0.337641464801303E+00  0.581938899033244E-02
  0.675337414025638E+00 -0.224951994744527E+00  0.893124764433604E-02
  0.675337414025638E+00 -0.112343328682423E+00  0.115451984940524E-01
  0.675337414025638E+00  0.414186545644071E-17  0.125734790582388E-01
  0.675337414025638E+00  0.112343328682423E+00  0.115451984940525E-01
  0.675337414025638E+00  0.224951994744527E+00  0.893124764433606E-02
  0.675337414025638E+00  0.337641464801303E+00  0.581938899033244E-02
  0.675337414025638E+00  0.449536557024029E+00  0.320976302958664E-02
  0.675337414025638E+00  0.560523029461074E+00  0.150519884011200E-02
  0.675337414025638E+00  0.675337414025638E+00  0.576951921311190E-03
  0.675337414025638E+00  0.798443291855323E+00  0.168559214254247E-03
  0.675337414025638E+00  0.904141431802467E+00  0.463800413337072E-04
  0.675337414025638E+00  0.975060457533844E+00  0.100049770941538E-04
  0.675337414025638E+00  0.100000000000000E+01  0.000000000000000E+00
  0.798443291855323E+00 -0.100000000000000E+01  0.000000000000000E+00
  0.798443291855323E+00 -0.975060457533844E+00  0.274999453614473E-04
  0.798443291855323E+00 -0.904141431802467E+00  0.127481411553926E-03
  0.798443291855323E+00 -0.798443291855323E+00  0.463306326267695E-03
  0.798443291855323E+00 -0.675337414025638E+00  0.158582535075259E-02
  0.798443291855323E+00 -0.560523029461074E+00  0.413722944682914E-02
  0.798443291855323E+00 -0.449536557024029E+00  0.882243977843205E-02
  0.798443291855323E+00 -0.337641464801303E+00  0.159953268930255E-01
  0.798443291855323E+00 -0.224951994744527E+00  0.245486641045298E-01
  0.798443291855323E+00 -0.112343328682423E+00  0.317334387216174E-01
  0.798443291855323E+00  0.414186545644071E-17  0.345597979460621E-01
  0.798443291855323E+00  0.112343328682423E+00  0.317334387216175E-01
  0.798443291855323E+00  0.224951994744527E+00  0.245486641045298E-01
  0.798443291855323E+00  0.337641464801303E+00  0.159953268930255E-01
  0.798443291855323E+00  0.449536557024029E+00  0.882243977843206E-02
  0.798443291855323E+00  0.560523029461074E+00  0.413722944682915E-02
  0.798443291855323E+00  0.675337414025638E+00  0.158582535075259E-02
  0.798443291855323E+00  0.798443291855323E+00  0.463306326267697E-03
  0.798443291855323E+00  0.904141431802467E+00  0.127481411553928E-03
  0.798443291855323E+00  0.975060457533844E+00  0.274999453614477E-04
  0.798443291855323E+00  0.100000000000000E+01  0.000000000000000E+00
  0.904141431802467E+00 -0.100000000000000E+01  0.000000000000000E+00
  0.904141431802467E+00 -0.975060457533844E+00  0.559946289567975E-04
  0.904141431802467E+00 -0.904141431802467E+00  0.259574128060994E-03
  0.904141431802467E+00 -0.798443291855323E+00  0.943371541004485E-03
  0.904141431802467E+00 -0.675337414025638E+00  0.322901376487068E-02
  0.904141431802467E+00 -0.560523029461074E+00  0.842411229282312E-02
  0.904141431802467E+00 -0.449536557024029E+00  0.179640081219404E-01
  0.904141431802467E+00 -0.337641464801303E+00  0.325692426828670E-01
  0.904141431802467E+00 -0.224951994744527E+00  0.499853115886357E-01
  0.904141431802467E+00 -0.112343328682423E+00  0.646147511512848E-01
  0.904141431802467E+00  0.414186545644071E-17  0.703697057126165E-01
  0.904141431802467E+00  0.112343328682423E+00  0.646147511512849E-01
  0.904141431802467E+00  0.224951994744527E+00  0.499853115886358E-01
  0.904141431802467E+00  0.337641464801303E+00  0.325692426828671E-01
  0.904141431802467E+00  0.449536557024029E+00  0.179640081219404E-01
  0.904141431802467E+00  0.560523029461074E+00  0.842411229282313E-02
  0.904141431802467E+00  0.675337414025638E+00  0.322901376487069E-02
  0.904141431802467E+00  0.798443291855323E+00  0.943371541004490E-03
  0.904141431802467E+00  0.904141431802467E+00  0.259574128060998E-03
  0.904141431802467E+00  0.975060457533844E+00  0.559946289567983E-04
  0.904141431802467E+00  0.100000000000000E+01  0.000000000000000E+00
  0.975060457533844E+00 -0.100000000000000E+01  0.000000000000000E+00
  0.975060457533844E+00 -0.975060457533844E+00  0.830574425595129E-04
  0.975060457533844E+00 -0.904141431802467E+00  0.385029129281956E-03
  0.975060457533844E+00 -0.798443291855323E+00  0.139931327419937E-02
  0.975060457533844E+00 -0.675337414025638E+00  0.478963126135516E-02
  0.975060457533844E+00 -0.560523029461074E+00  0.124955774502924E-01
  0.975060457533844E+00 -0.449536557024029E+00  0.266462087636443E-01
  0.975060457533844E+00 -0.337641464801303E+00  0.483103121471787E-01
  0.975060457533844E+00 -0.224951994744527E+00  0.741437567058948E-01
  0.975060457533844E+00 -0.112343328682423E+00  0.958437636306067E-01
  0.975060457533844E+00  0.414186545644071E-17  0.104380150366106E+00
  0.975060457533844E+00  0.112343328682423E+00  0.958437636306068E-01
  0.975060457533844E+00  0.224951994744527E+00  0.741437567058950E-01
  0.975060457533844E+00  0.337641464801303E+00  0.483103121471787E-01
  0.975060457533844E+00  0.449536557024029E+00  0.266462087636443E-01
  0.975060457533844E+00  0.560523029461074E+00  0.124955774502924E-01
  0.975060457533844E+00  0.675337414025638E+00  0.478963126135517E-02
  0.975060457533844E+00  0.798443291855323E+00  0.139931327419937E-02
  0.975060457533844E+00  0.904141431802467E+00  0.385029129281961E-03
  0.975060457533844E+00  0.975060457533844E+00  0.830574425595142E-04
  0.975060457533844E+00  0.100000000000000E+01  0.000000000000000E+00
  0.100000000000000E+01 -0.100000000000000E+01  0.000000000000000E+00
  0.100000000000000E+01 -0.975060457533844E+00  0.938925514537947E-04
  0.100000000000000E+01 -0.904141431802467E+00  0.435257410034658E-03
  0.100000000000000E+01 -0.798443291855323E+00  0.158185816408347E-02
  0.100000000000000E+01 -0.675337414025638E+00  0.541445397076685E-02
  0.100000000000000E+01 -0.560523029461074E+00  0.141256654743221E-01
  0.100000000000000E+01 -0.449536557024029E+00  0.301222918790490E-01