 VARIABLES =  $x$  (b)
 ZONE I=         441 ,DATAPACKING=POINT
 -0.100000000000000E+01 -0.100000000000000E+01  0.000000000000000E+00
 -0.100000000000000E+01 -0.975060457533844E+00  0.000000000000000E+00
 -0.100000000000000E+01 -0.904141431802467E+00  0.000000000000000E+00
 -0.100000000000000E+01 -0.798443291855323E+00  0.000000000000000E+00
 -0.100000000000000E+01 -0.675337414025638E+00  0.000000000000000E+00
 -0.100000000000000E+01 -0.560523029461074E+00  0.000000000000000E+00
 -0.100000000000000E+01 -0.449536557024029E+00  0.000000000000000E+00
 -0.100000000000000E+01 -0.337641464801303E+00  0.000000000000000E+00
 -0.100000000000000E+01 -0.224951994744527E+00  0.000000000000000E+00
 -0.100000000000000E+01 -0.112343328682423E+00  0.000000000000000E+00
 -0.100000000000000E+01  0.414186545644071E-17  0.000000000000000E+00
 -0.100000000000000E+01  0.112343328682423E+00  0.000000000000000E+00
 -0.100000000000000E+01  0.224951994744527E+00  0.000000000000000E+00
 -0.100000000000000E+01  0.337641464801303E+00  0.000000000000000E+00
 -0.100000000000000E+01  0.449536557024029E+00  0.000000000000000E+00
 -0.100000000000000E+01  0.560523029461074E+00  0.000000000000000E+00
 -0.100000000000000E+01  0.675337414025638E+00  0.000000000000000E+00
 -0.100000000000000E+01  0.798443291855323E+00  0.000000000000000E+00
 -0.100000000000000E+01  0.904141431802467E+00  0.000000000000000E+00
 -0.100000000000000E+01  0.975060457533844E+00  0.000000000000000E+00
 -0.100000000000000E+01  0.100000000000000E+01  0.000000000000000E+00
 -0.975060457533844E+00 -0.100000000000000E+01  0.000000000000000E+00
 -0.975060457533844E+00 -0.975060457533844E+00 -0.155334414422817E-10
 -0.975060457533844E+00 -0.904141431802467E+00 -0.117679325461926E-09
 -0.975060457533844E+00 -0.798443291855323E+00 -0.119605829460736E-08
 -0.975060457533844E+00 -0.675337414025638E+00 -0.115901209261503E-07
 -0.975060457533844E+00 -0.560523029461074E+00 -0.689167598449520E-07
 -0.975060457533844E+00 -0.449536557024029E+00 -0.280648273709418E-06
 -0.975060457533844E+00 -0.337641464801303E+00 -0.843511676456021E-06
 -0.975060457533844E+00 -0.224951994744527E+00 -0.186235478471049E-05
 -0.975060457533844E+00 -0.112343328682423E+00 -0.299603174501776E-05
 -0.975060457533844E+00  0.414186545644071E-17 -0.350983659572744E-05
 -0.975060457533844E+00  0.112343328682423E+00 -0.299603174501777E-05
 -0.975060457533844E+00  0.224951994744527E+00 -0.186235478471050E-05
 -0.975060457533844E+00  0.337641464801303E+00 -0.843511676456032E-06
 -0.975060457533844E+00  0.449536557024029E+00 -0.280648273709422E-06
 -0.975060457533844E+00  0.560523029461074E+00 -0.689167598449535E-07
 -0.975060457533844E+00  0.675337414025638E+00 -0.115901209261509E-07
 -0.975060457533844E+00  0.798443291855323E+00 -0.119605829460747E-08
 -0.975060457533844E+00  0.904141431802467E+00 -0.117679325461943E-09
 -0.975060457533844E+00  0.975060457533844E+00 -0.155334414422829E-10
 -0.975060457533844E+00  0.100000000000000E+01  0.000000000000000E+00
 -0.904141431802467E+00 -0.100000000000000E+01  0.000000000000000E+00
 -0.904141431802467E+00 -0.975060457533844E+00  0.829698576602895E-10
 -0.904141431802467E+00 -0.904141431802467E+00  0.628568823289661E-09
 -0.904141431802467E+00 -0.798443291855323E+00  0.638858989188141E-08
 -0.904141431802467E+00 -0.675337414025638E+00  0.619071240749060E-07
 -0.904141431802467E+00 -0.560523029461074E+00  0.368109913198938E-06
 -0.904141431802467E+00 -0.449536557024029E+00  0.149904627245489E-05
 -0.904141431802467E+00 -0.337641464801303E+00  0.450550798461396E-05
 -0.904141431802467E+00 -0.224951994744527E+00  0.994752604793833E-05
 -0.904141431802467E+00 -0.112343328682423E+00  0.160029142224681E-04
 -0.904141431802467E+00  0.414186545644071E-17  0.187473360723170E-04
 -0.904141431802467E+00  0.112343328682423E+00  0.160029142224680E-04
 -0.904141431802467E+00  0.224951994744527E+00  0.994752604793830E-05
 -0.904141431802467E+00  0.337641464801303E+00  0.450550798461395E-05
 -0.904141431802467E+00  0.449536557024029E+00  0.149904627245488E-05
 -0.904141431802467E+00  0.560523029461074E+00  0.368109913198941E-06
 -0.904141431802467E+00  0.675337414025638E+00  0.619071240749090E-07
 -0.904141431802467E+00  0.798443291855323E+00  0.638858989188202E-08
 -0.904141431802467E+00  0.904141431802467E+00  0.628568823289770E-09
 -0.904141431802467E+00  0.975060457533844E+00  0.829698576602904E-10
 -0.904141431802467E+00  0.100000000000000E+01  0.000000000000000E+00
 -0.798443291855323E+00 -0.100000000000000E+01  0.000000000000000E+00
 -0.798443291855323E+00 -0.975060457533844E+00 -0.990385831645930E-10
 -0.798443291855323E+00 -0.904141431802467E+00 -0.750303387696672E-09
 -0.798443291855323E+00 -0.798443291855323E+00 -0.762586449050283E-08
 -0.798443291855323E+00 -0.675337414025638E+00 -0.738966420526185E-07
 -0.798443291855323E+00 -0.560523029461074E+00 -0.439401553591626E-06
 -0.798443291855323E+00 -0.449536557024029E+00 -0.178936572125189E-05
 -0.798443291855323E+00 -0.337641464801303E+00 -0.537808717529587E-05
 -0.798443291855323E+00 -0.224951994744527E+00 -0.118740577928503E-04
 -0.798443291855323E+00 -0.112343328682423E+00 -0.191021895545658E-04
 -0.798443291855323E+00  0.414186545644071E-17 -0.223781220226095E-04
 -0.798443291855323E+00  0.112343328682423E+00 -0.191021895545660E-04
 -0.798443291855323E+00  0.224951994744527E+00 -0.118740577928505E-04
 -0.798443291855323E+00  0.337641464801303E+00 -0.537808717529598E-05
 -0.798443291855323E+00  0.449536557024029E+00 -0.178936572125193E-05
 -0.798443291855323E+00  0.560523029461074E+00 -0.439401553591637E-06
 -0.798443291855323E+00  0.675337414025638E+00 -0.738966420526216E-07
 -0.798443291855323E+00  0.798443291855323E+00 -0.762586449050332E-08
 -0.798443291855323E+00  0.904141431802467E+00 -0.750303387696758E-09
 -0.798443291855323E+00  0.975060457533844E+00 -0.990385831645994E-10
 -0.798443291855323E+00  0.100000000000000E+01  0.000000000000000E+00
 -0.675337414025638E+00 -0.100000000000000E+01  0.000000000000000E+00
 -0.675337414025638E+00 -0.975060457533844E+00  0.725334640119933E-10
 -0.675337414025638E+00 -0.904141431802467E+00  0.549504056000634E-09
 -0.675337414025638E+00 -0.798443291855323E+00  0.558499878506668E-08
 -0.675337414025638E+00 -0.675337414025638E+00  0.541201142868773E-07
 -0.675337414025638E+00 -0.560523029461074E+00  0.321807076074275E-06
 -0.675337414025638E+00 -0.449536557024029E+00  0.131048819755980E-05
 -0.675337414025638E+00 -0.337641464801303E+00  0.393878102735914E-05
 -0.675337414025638E+00 -0.224951994744527E+00  0.869627284455116E-05
 -0.675337414025638E+00 -0.112343328682423E+00  0.139899817702628E-04
 -0.675337414025638E+00  0.414186545644071E-17  0.163891954949617E-04
 -0.675337414025638E+00  0.112343328682423E+00  0.139899817702628E-04
 -0.675337414025638E+00  0.224951994744527E+00  0.869627284455115E-05
 -0.675337414025638E+00  0.337641464801303E+00  0.393878102735914E-05
 -0.675337414025638E+00  0.449536557024029E+00  0.131048819755980E-05
 -0.675337414025638E+00  0.560523029461074E+00  0.321807076074280E-06
 -0.675337414025638E+00  0.675337414025638E+00  0.541201142868807E-07
 -0.675337414025638E+00  0.798443291855323E+00  0.558499878506730E-08
 -0.675337414025638E+00  0.904141431802467E+00  0.549504056000733E-09
 -0.675337414025638E+00  0.975060457533844E+00  0.725334640119936E-10
 -0.675337414025638E+00  0.100000000000000E+01  0.000000000000000E+00
 -0.560523029461074E+00 -0.100000000000000E+01  0.000000000000000E+00
 -0.560523029461074E+00 -0.975060457533844E+00 -0.254169791322580E-09
 -0.560523029461074E+00 -0.904141431802467E+00 -0.192555716267306E-08
 -0.560523029461074E+00 -0.798443291855323E+00 -0.195708006238618E-07
 -0.560523029461074E+00 -0.675337414025638E+00 -0.189646229267031E-06
 -0.560523029461074E+00 -0.560523029461074E+00 -0.112766757982577E-05
 -0.560523029461074E+00 -0.449536557024029E+00 -0.459217699391873E-05
 -0.560523029461074E+00 -0.337641464801303E+00 -0.138021690210606E-04
 -0.560523029461074E+00 -0.224951994744527E+00 -0.304732420505254E-04
 -0.560523029461074E+00 -0.112343328682423E+00 -0.490233124482558E-04
 -0.560523029461074E+00  0.414186545644071E-17 -0.574305717305801E-04
 -0.560523029461074E+00  0.112343328682423E+00 -0.490233124482559E-04
 -0.560523029461074E+00  0.224951994744527E+00 -0.304732420505256E-04
 -0.560523029461074E+00  0.337641464801303E+00 -0.138021690210608E-04
 -0.560523029461074E+00  0.449536557024029E+00 -0.459217699391880E-05
 -0.560523029461074E+00  0.560523029461074E+00 -0.112766757982580E-05
 -0.560523029461074E+00  0.675337414025638E+00 -0.189646229267043E-06
 -0.560523029461074E+00  0.798443291855323E+00 -0.195708006238637E-07
 -0.560523029461074E+00  0.904141431802467E+00 -0.192555716267335E-08
 -0.560523029461074E+00  0.975060457533844E+00 -0.254169791322605E-09
 -0.560523029461074E+00  0.100000000000000E+01  0.000000000000000E+00
 -0.449536557024029E+00 -0.100000000000000E+01  0.000000000000000E+00
 -0.449536557024029E+00 -0.975060457533844E+00 -0.304017929627174E-10
 -0.449536557024029E+00 -0.904141431802467E+00 -0.230320109184455E-09
 -0.449536557024029E+00 -0.798443291855323E+00 -0.234090596292066E-08
 -0.449536557024029E+00 -0.675337414025638E+00 -0.226839971648589E-07
 -0.449536557024029E+00 -0.560523029461074E+00 -0.134882777054795E-06
 -0.449536557024029E+00 -0.449536557024029E+00 -0.549280354541572E-06
 -0.449536557024029E+00 -0.337641464801303E+00 -0.165090784646608E-05
 -0.449536557024029E+00 -0.224951994744527E+00 -0.364497190413533E-05
 -0.449536557024029E+00 -0.112343328682423E+00 -0.586378715222918E-05
 -0.449536557024029E+00  0.414186545644071E-17 -0.686939819876394E-05
 -0.449536557024029E+00  0.112343328682423E+00 -0.586378715222835E-05
 -0.449536557024029E+00  0.224951994744527E+00 -0.364497190413473E-05
 -0.449536557024029E+00  0.337641464801303E+00 -0.165090784646565E-05
 -0.449536557024029E+00  0.449536557024029E+00 -0.549280354541354E-06
 -0.449536557024029E+00  0.560523029461074E+00 -0.134882777054732E-06
 -0.449536557024029E+00  0.675337414025638E+00 -0.226839971648483E-07
 -0.449536557024029E+00  0.798443291855323E+00 -0.234090596292006E-08
 -0.449536557024029E+00  0.904141431802467E+00 -0.230320109184590E-09
 -0.449536557024029E+00  0.975060457533844E+00 -0.304017929626194E-10
 -0.449536557024029E+00  0.100000000000000E+01  0.000000000000000E+00
 -0.337641464801303E+00 -0.100000000000000E+01  0.000000000000000E+00
 -0.337641464801303E+00 -0.975060457533844E+00  0.729206201801543E-09
 -0.337641464801303E+00 -0.904141431802467E+00  0.552437125191031E-08
 -0.337641464801303E+00 -0.798443291855323E+00  0.561480954973730E-07
 -0.337641464801303E+00 -0.675337414025638E+00  0.544089883284163E-06
 -0.337641464801303E+00 -0.560523029461074E+00  0.323524770093428E-05
 -0.337641464801303E+00 -0.449536557024029E+00  0.131748313784847E-04
 -0.337641464801303E+00 -0.337641464801303E+00  0.395980493589349E-04
 -0.337641464801303E+00 -0.224951994744527E+00  0.874269073404594E-04
 -0.337641464801303E+00 -0.112343328682423E+00  0.140646558337775E-03
 -0.337641464801303E+00  0.414186545644071E-17  0.164766758248867E-03
 -0.337641464801303E+00  0.112343328682423E+00  0.140646558337776E-03
 -0.337641464801303E+00  0.224951994744527E+00  0.874269073404606E-04
 -0.337641464801303E+00  0.337641464801303E+00  0.395980493589353E-04
 -0.337641464801303E+00  0.449536557024029E+00  0.131748313784847E-04
 -0.337641464801303E+00  0.560523029461074E+00  0.323524770093424E-05
 -0.337641464801303E+00  0.675337414025638E+00  0.544089883284153E-06
 -0.337641464801303E+00  0.798443291855323E+00  0.561480954973731E-07
 -0.337641464801303E+00  0.904141431802467E+00  0.552437125191086E-08
 -0.337641464801303E+00  0.975060457533844E+00  0.729206201801437E-09
 -0.337641464801303E+00  0.100000000000000E+01  0.000000000000000E+00
 -0.224951994744527E+00 -0.100000000000000E+01  0.000000000000000E+00
 -0.224951994744527E+00 -0.975060457533844E+00  0.184809197531717E-08
 -0.224951994744527E+00 -0.904141431802467E+00  0.140009044014668E-07
 -0.224951994744527E+00 -0.798443291855323E+00  0.142301098108526E-06
 -0.224951994744527E+00 -0.675337414025638E+00  0.137893521425270E-05
 -0.224951994744527E+00 -0.560523029461074E+00  0.819937484306577E-05
 -0.224951994744527E+00 -0.449536557024029E+00  0.333901419025934E-04
 -0.224951994744527E+00 -0.337641464801303E+00  0.100356842746222E-03
 -0.224951994744527E+00 -0.224951994744527E+00  0.221573752376411E-03
 -0.224951994744527E+00 -0.112343328682423E+00  0.356453026383176E-03
 -0.224951994744527E+00  0.414186545644071E-17  0.417582984927717E-03
 -0.224951994744527E+00  0.112343328682423E+00  0.356453026383176E-03
 -0.224951994744527E+00  0.224951994744527E+00  0.221573752376410E-03
 -0.224951994744527E+00  0.337641464801303E+00  0.100356842746221E-03
 -0.224951994744527E+00  0.449536557024029E+00  0.333901419025935E-04
 -0.224951994744527E+00  0.560523029461074E+00  0.819937484306588E-05
 -0.224951994744527E+00  0.675337414025638E+00  0.137893521425272E-05
 -0.224951994744527E+00  0.798443291855323E+00  0.142301098108529E-06
 -0.224951994744527E+00  0.904141431802467E+00  0.140009044014677E-07
 -0.224951994744527E+00  0.975060457533844E+00  0.184809197531741E-08
 -0.224951994744527E+00  0.100000000000000E+01  0.000000000000000E+00
 -0.112343328682423E+00 -0.100000000000000E+01  0.000000000000000E+00
 -0.112343328682423E+00 -0.975060457533844E+00  0.223248055257166E-07
 -0.112343328682423E+00 -0.904141431802467E+00  0.169129816876141E-06
 -0.112343328682423E+00 -0.798443291855323E+00  0.171898603282428E-05
 -0.112343328682423E+00 -0.675337414025638E+00  0.166574287105680E-04
 -0.112343328682423E+00 -0.560523029461074E+00  0.990478023721922E-04
 -0.112343328682423E+00 -0.449536557024029E+00  0.403350284606071E-03
 -0.112343328682423E+00 -0.337641464801303E+00  0.121230275361995E-02
 -0.112343328682423E+00 -0.224951994744527E+00  0.267659346167484E-02
 -0.112343328682423E+00 -0.112343328682423E+00  0.430592444568974E-02
 -0.112343328682423E+00  0.414186545644071E-17  0.504436951772798E-02
 -0.112343328682423E+00  0.112343328682423E+00  0.430592444568975E-02
 -0.112343328682423E+00  0.224951994744527E+00  0.267659346167484E-02
 -0.112343328682423E+00  0.337641464801303E+00  0.121230275361996E-02
 -0.112343328682423E+00  0.449536557024029E+00  0.403350284606072E-03
 -0.112343328682423E+00  0.560523029461074E+00  0.990478023721923E-04
 -0.112343328682423E+00  0.675337414025638E+00  0.166574287105681E-04
 -0.112343328682423E+00  0.798443291855323E+00  0.171898603282432E-05
 -0.112343328682423E+00  0.904141431802467E+00  0.169129816876155E-06
 -0.112343328682423E+00  0.975060457533844E+00  0.223248055257174E-07
 -0.112343328682423E+00  0.100000000000000E+01  0.000000000000000E+00
  0.414186545644071E-17 -0.100000000000000E+01  0.000000000000000E+00
  0.414186545644071E-17 -0.975060457533844E+00  0.101352930393527E-06
  0.414186545644071E-17 -0.904141431802467E+00  0.767836589691112E-06
  0.414186545644071E-17 -0.798443291855323E+00  0.780406670592590E-05
  0.414186545644071E-17 -0.675337414025638E+00  0.756234677641074E-04
  0.414186545644071E-17 -0.560523029461074E+00  0.449669539312482E-03
  0.414186545644071E-17 -0.449536557024029E+00  0.183117981833530E-02
  0.414186545644071E-17 -0.337641464801303E+00  0.550376291171070E-02
  0.414186545644071E-17 -0.224951994744527E+00  0.121515321003901E-01
  0.414186545644071E-17 -0.112343328682423E+00  0.195485716729042E-01
  0.414186545644071E-17  0.414186545644071E-17  0.229010565106849E-01
  0.414186545644071E-17  0.112343328682423E+00  0.195485716729042E-01
  0.414186545644071E-17  0.224951994744527E+00  0.121515321003901E-01
  0.414186545644071E-17  0.337641464801303E+00  0.550376291171070E-02
  0.414186545644071E-17  0.449536557024029E+00  0.183117981833530E-02
  0.414186545644071E-17  0.560523029461074E+00  0.449669539312483E-03
  0.414186545644071E-17  0.675337414025638E+00  0.756234677641078E-04
  0.414186545644071E-17  0.798443291855323E+00  0.780406670592606E-05
  0.414186545644071E-17  0.904141431802467E+00  0.767836589691180E-06
  0.414186545644071E-17  0.975060457533844E+00  0.101352930393526E-06
  0.414186545644071E-17  0.100000000000000E+01  0.000000000000000E+00
  0.112343328682423E+00 -0.100000000000000E+01  0.000000000000000E+00
  0.112343328682423E+00 -0.975060457533844E+00  0.333517759029500E-06
  0.112343328682423E+00 -0.904141431802467E+00  0.252668705846480E-05
  0.112343328682423E+00 -0.798443291855323E+00  0.256805088681402E-04
  0.112343328682423E+00 -0.675337414025638E+00  0.248850914138857E-03
  0.112343328682423E+00 -0.560523029461074E+00  0.147970833886438E-02
  0.112343328682423E+00 -0.449536557024029E+00  0.602578517926329E-02
  0.112343328682423E+00 -0.337641464801303E+00  0.181109974186952E-01
  0.112343328682423E+00 -0.224951994744527E+00  0.399865273836376E-01
  0.112343328682423E+00 -0.112343328682423E+00  0.643276493657553E-01
  0.112343328682423E+00  0.414186545644071E-17  0.753595279374894E-01
  0.112343328682423E+00  0.112343328682423E+00  0.643276493657554E-01
  0.112343328682423E+00  0.224951994744527E+00  0.399865273836376E-01
  0.112343328682423E+00  0.337641464801303E+00  0.181109974186952E-01
  0.112343328682423E+00  0.449536557024029E+00  0.602578517926330E-02
  0.112343328682423E+00  0.560523029461074E+00  0.147970833886438E-02
  0.112343328682423E+00  0.675337414025638E+00  0.248850914138858E-03
  0.112343328682423E+00  0.798443291855323E+00  0.256805088681408E-04
  0.112343328682423E+00  0.904141431802467E+00  0.252668705846501E-05
  0.112343328682423E+00  0.975060457533844E+00  0.333517759029501E-06
  0.112343328682423E+00  0.100000000000000E+01  0.000000000000000E+00
  0.224951994744527E+00 -0.100000000000000E+01  0.000000000000000E+00
  0.224951994744527E+00 -0.975060457533844E+00  0.857519308370846E-06
  0.224951994744527E+00 -0.904141431802467E+00  0.649645445407508E-05
  0.224951994744527E+00 -0.798443291855323E+00  0.660280646274681E-04
  0.224951994744527E+00 -0.675337414025638E+00  0.639829387106603E-03
  0.224951994744527E+00 -0.560523029461074E+00  0.380453044792139E-02
  0.224951994744527E+00 -0.449536557024029E+00  0.154931094083250E-01
  0.224951994744527E+00 -0.337641464801303E+00  0.465658260429659E-01
  0.224951994744527E+00 -0.224951994744527E+00  0.102810774830320E+00
  0.224951994744527E+00 -0.112343328682423E+00  0.165395094426673E+00
  0.224951994744527E+00  0.414186545644071E-17  0.193759547576848E+00
  0.224951994744527E+00  0.112343328682423E+00  0.165395094426673E+00
  0.224951994744527E+00  0.224951994744527E+00  0.102810774830320E+00
  0.224951994744527E+00  0.337641464801303E+00  0.465658260429659E-01
  0.224951994744527E+00  0.449536557024029E+00  0.154931094083250E-01
  0.224951994744527E+00  0.560523029461074E+00  0.380453044792139E-02
  0.224951994744527E+00  0.675337414025638E+00  0.639829387106605E-03
  0.224951994744527E+00  0.798443291855323E+00  0.660280646274695E-04
  0.224951994744527E+00  0.904141431802467E+00  0.649645445407569E-05
  0.224951994744527E+00  0.975060457533844E+00  0.857519308370815E-06
  0.224951994744527E+00  0.100000000000000E+01  0.000000000000000E+00
  0.337641464801303E+00 -0.100000000000000E+01  0.000000000000000E+00
  0.337641464801303E+00 -0.975060457533844E+00  0.160587716273000E-05
  0.337641464801303E+00 -0.904141431802467E+00  0.121659159580864E-04
  0.337641464801303E+00 -0.798443291855323E+00  0.123650814613716E-03
  0.337641464801303E+00 -0.675337414025638E+00  0.119820905561709E-02
  0.337641464801303E+00 -0.560523029461074E+00  0.712474751763196E-02
  0.337641464801303E+00 -0.449536557024029E+00  0.290139596334843E-01
  0.337641464801303E+00 -0.337641464801303E+00  0.872038634585396E-01
  0.337641464801303E+00 -0.224951994744527E+00  0.192533828620348E+00
  0.337641464801303E+00 -0.112343328682423E+00  0.309735539073401E+00
  0.337641464801303E+00  0.414186545644071E-17  0.362853675476582E+00
  0.337641464801303E+00  0.112343328682423E+00  0.309735539073401E+00
  0.337641464801303E+00  0.224951994744527E+00  0.192533828620349E+00
  0.337641464801303E+00  0.337641464801303E+00  0.872038634585396E-01
  0.337641464801303E+00  0.449536557024029E+00  0.290139596334843E-01
  0.337641464801303E+00  0.560523029461074E+00  0.712474751763198E-02
  0.337641464801303E+00  0.675337414025638E+00  0.119820905561710E-02
  0.337641464801303E+00  0.798443291855323E+00  0.123650814613719E-03
  0.337641464801303E+00  0.904141431802467E+00  0.121659159580875E-04
  0.337641464801303E+00  0.975060457533844E+00  0.160587716272999E-05
  0.337641464801303E+00  0.100000000000000E+01  0.000000000000000E+00
  0.449536557024029E+00 -0.100000000000000E+01  0.000000000000000E+00
  0.449536557024029E+00 -0.975060457533844E+00  0.215253456597219E-05
  0.449536557024029E+00 -0.904141431802467E+00  0.163073211636267E-04
  0.449536557024029E+00 -0.798443291855323E+00  0.165742846781851E-03
  0.449536557024029E+00 -0.675337414025638E+00  0.160609196550332E-02
  0.449536557024029E+00 -0.560523029461074E+00  0.955008618323297E-02
  0.449536557024029E+00 -0.449536557024029E+00  0.388906153403856E-01
  0.449536557024029E+00 -0.337641464801303E+00  0.116888971853270E+00
  0.449536557024029E+00 -0.224951994744527E+00  0.258074360314625E+00
  0.449536557024029E+00 -0.112343328682423E+00  0.415172760521539E+00
  0.449536557024029E+00  0.414186545644071E-17  0.486372866894483E+00
  0.449536557024029E+00  0.112343328682423E+00  0.415172760521539E+00
  0.449536557024029E+00  0.224951994744527E+00  0.258074360314625E+00
  0.449536557024029E+00  0.337641464801303E+00  0.116888971853270E+00
  0.449536557024029E+00  0.449536557024029E+00  0.388906153403857E-01
  0.449536557024029E+00  0.560523029461074E+00  0.955008618323299E-02
  0.449536557024029E+00  0.675337414025638E+00  0.160609196550333E-02
  0.449536557024029E+00  0.798443291855323E+00  0.165742846781854E-03
  0.449536557024029E+00  0.904141431802467E+00  0.163073211636282E-04
  0.449536557024029E+00  0.975060457533844E+00  0.215253456597216E-05
  0.449536557024029E+00  0.100000000000000E+01  0.000000000000000E+00
  0.560523029461074E+00 -0.100000000000000E+01  0.000000000000000E+00
  0.560523029461074E+00 -0.975060457533844E+00  0.210491693241865E-05
  0.560523029461074E+00 -0.904141431802467E+00  0.159465761946436E-04
  0.560523029461074E+00 -0.798443291855323E+00  0.162076340133834E-03
  0.560523029461074E+00 -0.675337414025638E+00  0.157056254641269E-02
  0.560523029461074E+00 -0.560523029461074E+00  0.933882242888504E-02
  0.560523029461074E+00 -0.449536557024029E+00  0.380302903923127E-01
  0.560523029461074E+00 -0.337641464801303E+00  0.114303193840398E+00
  0.560523029461074E+00 -0.224951994744527E+00  0.252365327274850E+00
  0.560523029461074E+00 -0.112343328682423E+00  0.405988450257948E+00
  0.560523029461074E+00  0.414186545644071E-17  0.475613492169325E+00
  0.560523029461074E+00  0.112343328682423E+00  0.405988450257948E+00
  0.560523029461074E+00  0.224951994744527E+00  0.252365327274850E+00
  0.560523029461074E+00  0.337641464801303E+00  0.114303193840398E+00
  0.560523029461074E+00  0.449536557024029E+00  0.380302903923127E-01
  0.560523029461074E+00  0.560523029461074E+00  0.933882242888505E-02
  0.560523029461074E+00  0.675337414025638E+00  0.157056254641269E-02
  0.560523029461074E+00  0.798443291855323E+00  0.162076340133837E-03
  0.560523029461074E+00  0.904141431802467E+00  0.159465761946450E-04
  0.560523029461074E+00  0.975060457533844E+00  0.210491693241865E-05
  0.560523029461074E+00  0.100000000000000E+01  0.000000000000000E+00
  0.675337414025638E+00 -0.100000000000000E+01  0.000000000000000E+00
  0.675337414025638E+00 -0.975060457533844E+00  0.150012953052426E-05
  0.675337414025638E+00 -0.904141431802467E+00  0.113647857095627E-04
  0.675337414025638E+00 -0.798443291855323E+00  0.115508360520218E-03
  0.675337414025638E+00 -0.675337414025638E+00  0.111930652241262E-02
  0.675337414025638E+00 -0.560523029461074E+00  0.665558011205791E-02
  0.675337414025638E+00 -0.449536557024029E+00  0.271033790633282E-01
  0.675337414025638E+00 -0.337641464801303E+00  0.814614550236036E-01
  0.675337414025638E+00 -0.224951994744527E+00  0.179855400937831E+00
  0.675337414025638E+00 -0.112343328682423E+00  0.289339333127025E+00
  0.675337414025638E+00  0.414186545644071E-17  0.338959619576060E+00
  0.675337414025638E+00  0.112343328682423E+00  0.289339333127025E+00
  0.675337414025638E+00  0.224951994744527E+00  0.179855400937831E+00
  0.675337414025638E+00  0.337641464801303E+00  0.814614550236036E-01
  0.675337414025638E+00  0.449536557024029E+00  0.271033790633282E-01
  0.675337414025638E+00  0.560523029461074E+00  0.665558011205792E-02
  0.675337414025638E+00  0.675337414025638E+00  0.111930652241262E-02
  0.675337414025638E+00  0.798443291855323E+00  0.115508360520220E-03
  0.675337414025638E+00  0.904141431802467E+00  0.113647857095637E-04
  0.675337414025638E+00  0.975060457533844E+00  0.150012953052425E-05
  0.675337414025638E+00  0.100000000000000E+01  0.000000000000000E+00
  0.798443291855323E+00 -0.100000000000000E+01  0.000000000000000E+00
  0.798443291855323E+00 -0.975060457533844E+00  0.728597853824408E-06
  0.798443291855323E+00 -0.904141431802467E+00  0.551976233521061E-05
  0.798443291855323E+00 -0.798443291855323E+00  0.561012512309555E-04
  0.798443291855323E+00 -0.675337414025638E+00  0.543635942038456E-03
  0.798443291855323E+00 -0.560523029461074E+00  0.323254844687537E-02
  0.798443291855323E+00 -0.449536557024029E+00  0.131638391173715E-01
  0.798443291855323E+00 -0.337641464801303E+00  0.395650108834904E-01
  0.798443291855323E+00 -0.224951994744527E+00  0.873539625727676E-01
  0.798443291855323E+00 -0.112343328682423E+00  0.140529209247453E+00
  0.798443291855323E+00  0.414186545644071E-17  0.164629284199698E+00
  0.798443291855323E+00  0.112343328682423E+00  0.140529209247453E+00
  0.798443291855323E+00  0.224951994744527E+00  0.873539625727677E-01
  0.798443291855323E+00  0.337641464801303E+00  0.395650108834904E-01
  0.798443291855323E+00  0.449536557024029E+00  0.131638391173715E-01
  0.798443291855323E+00  0.560523029461074E+00  0.323254844687538E-02
  0.798443291855323E+00  0.675337414025638E+00  0.543635942038459E-03
  0.798443291855323E+00  0.798443291855323E+00  0.561012512309567E-04
  0.798443291855323E+00  0.904141431802467E+00  0.551976233521109E-05
  0.798443291855323E+00  0.975060457533844E+00  0.728597853824414E-06
  0.798443291855323E+00  0.100000000000000E+01  0.000000000000000E+00
  0.904141431802467E+00 -0.100000000000000E+01  0.000000000000000E+00
  0.904141431802467E+00 -0.975060457533844E+00  0.287684168251451E-06
  0.904141431802467E+00 -0.904141431802467E+00  0.217945775023199E-05
  0.904141431802467E+00 -0.798443291855323E+00  0.221513717586898E-04
  0.904141431802467E+00 -0.675337414025638E+00  0.214652643485820E-03
  0.904141431802467E+00 -0.560523029461074E+00  0.127635981316554E-02
  0.904141431802467E+00 -0.449536557024029E+00  0.519769324557865E-02
  0.904141431802467E+00 -0.337641464801303E+00  0.156220983772733E-01
  0.904141431802467E+00 -0.224951994744527E+00  0.344913893832075E-01
  0.904141431802467E+00 -0.112343328682423E+00  0.554874390553382E-01
  0.904141431802467E+00  0.414186545644071E-17  0.650032646010737E-01
  0.904141431802467E+00  0.112343328682423E+00  0.554874390553383E-01
  0.904141431802467E+00  0.224951994744527E+00  0.344913893832076E-01
  0.904141431802467E+00  0.337641464801303E+00  0.156220983772733E-01
  0.904141431802467E+00  0.449536557024029E+00  0.519769324557866E-02
  0.904141431802467E+00  0.560523029461074E+00  0.127635981316555E-02
  0.904141431802467E+00  0.675337414025638E+00  0.214652643485821E-03
  0.904141431802467E+00  0.798443291855323E+00  0.221513717586903E-04
  0.904141431802467E+00  0.904141431802467E+00  0.217945775023219E-05
  0.904141431802467E+00  0.975060457533844E+00  0.287684168251451E-06
  0.904141431802467E+00  0.100000000000000E+01  0.000000000000000E+00
  0.975060457533844E+00 -0.100000000000000E+01  0.000000000000000E+00
  0.975060457533844E+00 -0.975060457533844E+00  0.130870425641973E-06
  0.975060457533844E+00 -0.904141431802467E+00  0.991457286430560E-06
  0.975060457533844E+00 -0.798443291855323E+00  0.100768822665998E-04
  0.975060457533844E+00 -0.675337414025638E+00  0.976476514057515E-04
  0.975060457533844E+00 -0.560523029461074E+00  0.580628946945196E-03
  0.975060457533844E+00 -0.449536557024029E+00  0.236448306059921E-02
  0.975060457533844E+00 -0.337641464801303E+00  0.710665005422478E-02
  0.975060457533844E+00 -0.224951994744527E+00  0.156904807713811E-01
  0.975060457533844E+00 -0.112343328682423E+00  0.252417954452796E-01
  0.975060457533844E+00  0.414186545644071E-17  0.295706404221254E-01
  0.975060457533844E+00  0.112343328682423E+00  0.252417954452796E-01
  0.975060457533844E+00  0.224951994744527E+00  0.156904807713811E-01
  0.975060457533844E+00  0.337641464801303E+00  0.710665005422478E-02
  0.975060457533844E+00  0.449536557024029E+00  0.236448306059921E-02
  0.975060457533844E+00  0.560523029461074E+00  0.580628946945197E-03
  0.975060457533844E+00  0.675337414025638E+00  0.976476514057520E-04
  0.975060457533844E+00  0.798443291855323E+00  0.100768822666000E-04
  0.975060457533844E+00  0.904141431802467E+00  0.991457286430651E-06
  0.975060457533844E+00  0.975060457533844E+00  0.130870425641966E-06
  0.975060457533844E+00  0.100000000000000E+01  0.000000000000000E+00
  0.100000000000000E+01 -0.100000000000000E+01  0.000000000000000E+00
  0.100000000000000E+01 -0.975060457533844E+00  0.959700723219755E-07
  0.100000000000000E+01 -0.904141431802467E+00  0.727056761022247E-06
  0.100000000000000E+01 -0.798443291855323E+00  0.738959259398756E-05
  0.100000000000000E+01 -0.675337414025638E+00  0.716071047272490E-04
  0.100000000000000E+01 -0.560523029461074E+00  0.425787586991247E-03
  0.100000000000000E+01 -0.449536557024029E+00  0.173392584494785E-02