 VARIABLES =  $x$  (b)
 ZONE I=         441 ,DATAPACKING=POINT
 -0.100000000000000E+01 -0.100000000000000E+01  0.000000000000000E+00
 -0.100000000000000E+01 -0.975060457533844E+00  0.000000000000000E+00
 -0.100000000000000E+01 -0.904141431802467E+00  0.000000000000000E+00
 -0.100000000000000E+01 -0.798443291855323E+00  0.000000000000000E+00
 -0.100000000000000E+01 -0.675337414025638E+00  0.000000000000000E+00
 -0.100000000000000E+01 -0.560523029461074E+00  0.000000000000000E+00
 -0.100000000000000E+01 -0.449536557024029E+00  0.000000000000000E+00
 -0.100000000000000E+01 -0.337641464801303E+00  0.000000000000000E+00
 -0.100000000000000E+01 -0.224951994744527E+00  0.000000000000000E+00
 -0.100000000000000E+01 -0.112343328682423E+00  0.000000000000000E+00
 -0.100000000000000E+01  0.414186545644071E-17  0.000000000000000E+00
 -0.100000000000000E+01  0.112343328682423E+00  0.000000000000000E+00
 -0.100000000000000E+01  0.224951994744527E+00  0.000000000000000E+00
 -0.100000000000000E+01  0.337641464801303E+00  0.000000000000000E+00
 -0.100000000000000E+01  0.449536557024029E+00  0.000000000000000E+00
 -0.100000000000000E+01  0.560523029461074E+00  0.000000000000000E+00
 -0.100000000000000E+01  0.675337414025638E+00  0.000000000000000E+00
 -0.100000000000000E+01  0.798443291855323E+00  0.000000000000000E+00
 -0.100000000000000E+01  0.904141431802467E+00  0.000000000000000E+00
 -0.100000000000000E+01  0.975060457533844E+00  0.000000000000000E+00
 -0.100000000000000E+01  0.100000000000000E+01  0.000000000000000E+00
 -0.975060457533844E+00 -0.100000000000000E+01  0.000000000000000E+00
 -0.975060457533844E+00 -0.975060457533844E+00 -0.676589173009258E-11
 -0.975060457533844E+00 -0.904141431802467E+00 -0.996949236873165E-10
 -0.975060457533844E+00 -0.798443291855323E+00 -0.114141510554034E-08
 -0.975060457533844E+00 -0.675337414025638E+00 -0.124723511242080E-07
 -0.975060457533844E+00 -0.560523029461074E+00 -0.814611565752123E-07
 -0.975060457533844E+00 -0.449536557024029E+00 -0.357251983517043E-06
 -0.975060457533844E+00 -0.337641464801303E+00 -0.113717647172931E-05
 -0.975060457533844E+00 -0.224951994744527E+00 -0.261607454365780E-05
 -0.975060457533844E+00 -0.112343328682423E+00 -0.431416094377717E-05
 -0.975060457533844E+00  0.414186545644071E-17 -0.509613228206797E-05
 -0.975060457533844E+00  0.112343328682423E+00 -0.431416094377716E-05
 -0.975060457533844E+00  0.224951994744527E+00 -0.261607454365780E-05
 -0.975060457533844E+00  0.337641464801303E+00 -0.113717647172932E-05
 -0.975060457533844E+00  0.449536557024029E+00 -0.357251983517043E-06
 -0.975060457533844E+00  0.560523029461074E+00 -0.814611565752132E-07
 -0.975060457533844E+00  0.675337414025638E+00 -0.124723511242086E-07
 -0.975060457533844E+00  0.798443291855323E+00 -0.114141510554043E-08
 -0.975060457533844E+00  0.904141431802467E+00 -0.996949236873385E-10
 -0.975060457533844E+00  0.975060457533844E+00 -0.676589173008757E-11
 -0.975060457533844E+00  0.100000000000000E+01  0.000000000000000E+00
 -0.904141431802467E+00 -0.100000000000000E+01  0.000000000000000E+00
 -0.904141431802467E+00 -0.975060457533844E+00  0.239074815515389E-10
 -0.904141431802467E+00 -0.904141431802467E+00  0.352275019161945E-09
 -0.904141431802467E+00 -0.798443291855323E+00  0.403322464153206E-08
 -0.904141431802467E+00 -0.675337414025638E+00  0.440714280038208E-07
 -0.904141431802467E+00 -0.560523029461074E+00  0.287845447791064E-06
 -0.904141431802467E+00 -0.449536557024029E+00  0.126236063483369E-05
 -0.904141431802467E+00 -0.337641464801303E+00  0.401824729399074E-05
 -0.904141431802467E+00 -0.224951994744527E+00  0.924397816835617E-05
 -0.904141431802467E+00 -0.112343328682423E+00  0.152442176135590E-04
 -0.904141431802467E+00  0.414186545644071E-17  0.180073368952596E-04
 -0.904141431802467E+00  0.112343328682423E+00  0.152442176135588E-04
 -0.904141431802467E+00  0.224951994744527E+00  0.924397816835603E-05
 -0.904141431802467E+00  0.337641464801303E+00  0.401824729399067E-05
 -0.904141431802467E+00  0.449536557024029E+00  0.126236063483366E-05
 -0.904141431802467E+00  0.560523029461074E+00  0.287845447791063E-06
 -0.904141431802467E+00  0.675337414025638E+00  0.440714280038236E-07
 -0.904141431802467E+00  0.798443291855323E+00  0.403322464153250E-08
 -0.904141431802467E+00  0.904141431802467E+00  0.352275019162051E-09
 -0.904141431802467E+00  0.975060457533844E+00  0.239074815515088E-10
 -0.904141431802467E+00  0.100000000000000E+01  0.000000000000000E+00
 -0.798443291855323E+00 -0.100000000000000E+01  0.000000000000000E+00
 -0.798443291855323E+00 -0.975060457533844E+00 -0.394366251789797E-10
 -0.798443291855323E+00 -0.904141431802467E+00 -0.581095821215056E-09
 -0.798443291855323E+00 -0.798443291855323E+00 -0.665301221688370E-08
 -0.798443291855323E+00 -0.675337414025638E+00 -0.726980954586395E-07
 -0.798443291855323E+00 -0.560523029461074E+00 -0.474815925100349E-06
 -0.798443291855323E+00 -0.449536557024029E+00 -0.208232903032667E-05
 -0.798443291855323E+00 -0.337641464801303E+00 -0.662830632522034E-05
 -0.798443291855323E+00 -0.224951994744527E+00 -0.152484191255222E-04
 -0.798443291855323E+00 -0.112343328682423E+00 -0.251461237775445E-04
 -0.798443291855323E+00  0.414186545644071E-17 -0.297040316412628E-04
 -0.798443291855323E+00  0.112343328682423E+00 -0.251461237775446E-04
 -0.798443291855323E+00  0.224951994744527E+00 -0.152484191255223E-04
 -0.798443291855323E+00  0.337641464801303E+00 -0.662830632522042E-05
 -0.798443291855323E+00  0.449536557024029E+00 -0.208232903032669E-05
 -0.798443291855323E+00  0.560523029461074E+00 -0.474815925100356E-06
 -0.798443291855323E+00  0.675337414025638E+00 -0.726980954586424E-07
 -0.798443291855323E+00  0.798443291855323E+00 -0.665301221688412E-08
 -0.798443291855323E+00  0.904141431802467E+00 -0.581095821215166E-09
 -0.798443291855323E+00  0.975060457533844E+00 -0.394366251789559E-10
 -0.798443291855323E+00  0.100000000000000E+01  0.000000000000000E+00
 -0.675337414025638E+00 -0.100000000000000E+01  0.000000000000000E+00
 -0.675337414025638E+00 -0.975060457533844E+00  0.351743751611583E-10
 -0.675337414025638E+00 -0.904141431802467E+00  0.518291876342720E-09
 -0.675337414025638E+00 -0.798443291855323E+00  0.593396491648313E-08
 -0.675337414025638E+00 -0.675337414025638E+00  0.648409977498763E-07
 -0.675337414025638E+00 -0.560523029461074E+00  0.423498555567735E-06
 -0.675337414025638E+00 -0.449536557024029E+00  0.185727413698943E-05
 -0.675337414025638E+00 -0.337641464801303E+00  0.591192925415797E-05
 -0.675337414025638E+00 -0.224951994744527E+00  0.136003936231119E-04
 -0.675337414025638E+00 -0.112343328682423E+00  0.224283696904382E-04
 -0.675337414025638E+00  0.414186545644071E-17  0.264936659318525E-04
 -0.675337414025638E+00  0.112343328682423E+00  0.224283696904380E-04
 -0.675337414025638E+00  0.224951994744527E+00  0.136003936231119E-04
 -0.675337414025638E+00  0.337641464801303E+00  0.591192925415796E-05
 -0.675337414025638E+00  0.449536557024029E+00  0.185727413698942E-05
 -0.675337414025638E+00  0.560523029461074E+00  0.423498555567737E-06
 -0.675337414025638E+00  0.675337414025638E+00  0.648409977498798E-07
 -0.675337414025638E+00  0.798443291855323E+00  0.593396491648364E-08
 -0.675337414025638E+00  0.904141431802467E+00  0.518291876342849E-09
 -0.675337414025638E+00  0.975060457533844E+00  0.351743751611247E-10
 -0.675337414025638E+00  0.100000000000000E+01  0.000000000000000E+00
 -0.560523029461074E+00 -0.100000000000000E+01  0.000000000000000E+00
 -0.560523029461074E+00 -0.975060457533844E+00 -0.119441877199333E-09
 -0.560523029461074E+00 -0.904141431802467E+00 -0.175996736523912E-08
 -0.560523029461074E+00 -0.798443291855323E+00 -0.201500063146798E-07
 -0.560523029461074E+00 -0.675337414025638E+00 -0.220181030397136E-06
 -0.560523029461074E+00 -0.560523029461074E+00 -0.143807700776480E-05
 -0.560523029461074E+00 -0.449536557024029E+00 -0.630675876244081E-05
 -0.560523029461074E+00 -0.337641464801303E+00 -0.200751794302816E-04
 -0.560523029461074E+00 -0.224951994744527E+00 -0.461829514876779E-04
 -0.560523029461074E+00 -0.112343328682423E+00 -0.761601713379742E-04
 -0.560523029461074E+00  0.414186545644071E-17 -0.899647261090010E-04
 -0.560523029461074E+00  0.112343328682423E+00 -0.761601713379741E-04
 -0.560523029461074E+00  0.224951994744527E+00 -0.461829514876780E-04
 -0.560523029461074E+00  0.337641464801303E+00 -0.200751794302817E-04
 -0.560523029461074E+00  0.449536557024029E+00 -0.630675876244081E-05
 -0.560523029461074E+00  0.560523029461074E+00 -0.143807700776482E-05
 -0.560523029461074E+00  0.675337414025638E+00 -0.220181030397148E-06
 -0.560523029461074E+00  0.798443291855323E+00 -0.201500063146814E-07
 -0.560523029461074E+00  0.904141431802467E+00 -0.175996736523952E-08
 -0.560523029461074E+00  0.975060457533844E+00 -0.119441877199238E-09
 -0.560523029461074E+00  0.100000000000000E+01  0.000000000000000E+00
 -0.449536557024029E+00 -0.100000000000000E+01  0.000000000000000E+00
 -0.449536557024029E+00 -0.975060457533844E+00  0.115282961836580E-09
 -0.449536557024029E+00 -0.904141431802467E+00  0.169868585452088E-08
 -0.449536557024029E+00 -0.798443291855323E+00  0.194483899247400E-07
 -0.449536557024029E+00 -0.675337414025638E+00  0.212514403030011E-06
 -0.449536557024029E+00 -0.560523029461074E+00  0.138800366157390E-05
 -0.449536557024029E+00 -0.449536557024029E+00  0.608715955978089E-05
 -0.449536557024029E+00 -0.337641464801303E+00  0.193761683588668E-04
 -0.449536557024029E+00 -0.224951994744527E+00  0.445748762232887E-04
 -0.449536557024029E+00 -0.112343328682423E+00  0.735082988097697E-04
 -0.449536557024029E+00  0.414186545644071E-17  0.868321833371023E-04
 -0.449536557024029E+00  0.112343328682423E+00  0.735082988097710E-04
 -0.449536557024029E+00  0.224951994744527E+00  0.445748762232899E-04
 -0.449536557024029E+00  0.337641464801303E+00  0.193761683588676E-04
 -0.449536557024029E+00  0.449536557024029E+00  0.608715955978113E-05
 -0.449536557024029E+00  0.560523029461074E+00  0.138800366157396E-05
 -0.449536557024029E+00  0.675337414025638E+00  0.212514403030024E-06
 -0.449536557024029E+00  0.798443291855323E+00  0.194483899247411E-07
 -0.449536557024029E+00  0.904141431802467E+00  0.169868585452110E-08
 -0.449536557024029E+00  0.975060457533844E+00  0.115282961836608E-09
 -0.449536557024029E+00  0.100000000000000E+01  0.000000000000000E+00
 -0.337641464801303E+00 -0.100000000000000E+01  0.000000000000000E+00
 -0.337641464801303E+00 -0.975060457533844E+00  0.170384395183726E-09
 -0.337641464801303E+00 -0.904141431802467E+00  0.251060244639437E-08
 -0.337641464801303E+00 -0.798443291855323E+00  0.287440858164165E-07
 -0.337641464801303E+00 -0.675337414025638E+00  0.314089349882461E-06
 -0.337641464801303E+00 -0.560523029461074E+00  0.205142411026021E-05
 -0.337641464801303E+00 -0.449536557024029E+00  0.899662331642882E-05
 -0.337641464801303E+00 -0.337641464801303E+00  0.286373455418597E-04
 -0.337641464801303E+00 -0.224951994744527E+00  0.658802159911579E-04
 -0.337641464801303E+00 -0.112343328682423E+00  0.108642874054866E-03
 -0.337641464801303E+00  0.414186545644071E-17  0.128335142463351E-03
 -0.337641464801303E+00  0.112343328682423E+00  0.108642874054866E-03
 -0.337641464801303E+00  0.224951994744527E+00  0.658802159911582E-04
 -0.337641464801303E+00  0.337641464801303E+00  0.286373455418596E-04
 -0.337641464801303E+00  0.449536557024029E+00  0.899662331642871E-05
 -0.337641464801303E+00  0.560523029461074E+00  0.205142411026016E-05
 -0.337641464801303E+00  0.675337414025638E+00  0.314089349882447E-06
 -0.337641464801303E+00  0.798443291855323E+00  0.287440858164163E-07
 -0.337641464801303E+00  0.904141431802467E+00  0.251060244639467E-08
 -0.337641464801303E+00  0.975060457533844E+00  0.170384395183547E-09
 -0.337641464801303E+00  0.100000000000000E+01  0.000000000000000E+00
 -0.224951994744527E+00 -0.100000000000000E+01  0.000000000000000E+00
 -0.224951994744527E+00 -0.975060457533844E+00  0.135344803117634E-08
 -0.224951994744527E+00 -0.904141431802467E+00  0.199429585609850E-07
 -0.224951994744527E+00 -0.798443291855323E+00  0.228328513140686E-06
 -0.224951994744527E+00 -0.675337414025638E+00  0.249496728126835E-05
 -0.224951994744527E+00 -0.560523029461074E+00  0.162954775338186E-04
 -0.224951994744527E+00 -0.449536557024029E+00  0.714646325684645E-04
 -0.224951994744527E+00 -0.337641464801303E+00  0.227480608038654E-03
 -0.224951994744527E+00 -0.224951994744527E+00  0.523319152699472E-03
 -0.224951994744527E+00 -0.112343328682423E+00  0.863004097923760E-03
 -0.224951994744527E+00  0.414186545644071E-17  0.101942952580419E-02
 -0.224951994744527E+00  0.112343328682423E+00  0.863004097923761E-03
 -0.224951994744527E+00  0.224951994744527E+00  0.523319152699471E-03
 -0.224951994744527E+00  0.337641464801303E+00  0.227480608038654E-03
 -0.224951994744527E+00  0.449536557024029E+00  0.714646325684649E-04
 -0.224951994744527E+00  0.560523029461074E+00  0.162954775338187E-04
 -0.224951994744527E+00  0.675337414025638E+00  0.249496728126838E-05
 -0.224951994744527E+00  0.798443291855323E+00  0.228328513140693E-06
 -0.224951994744527E+00  0.904141431802467E+00  0.199429585609867E-07
 -0.224951994744527E+00  0.975060457533844E+00  0.135344803117685E-08
 -0.224951994744527E+00  0.100000000000000E+01  0.000000000000000E+00
 -0.112343328682423E+00 -0.100000000000000E+01  0.000000000000000E+00
 -0.112343328682423E+00 -0.975060457533844E+00  0.121383297234486E-07
 -0.112343328682423E+00 -0.904141431802467E+00  0.178857405018795E-06
 -0.112343328682423E+00 -0.798443291855323E+00  0.204775262501712E-05
 -0.112343328682423E+00 -0.675337414025638E+00  0.223759869598462E-04
 -0.112343328682423E+00 -0.560523029461074E+00  0.146145160901747E-03
 -0.112343328682423E+00 -0.449536557024029E+00  0.640926921813638E-03
 -0.112343328682423E+00 -0.337641464801303E+00  0.204014826298957E-02
 -0.112343328682423E+00 -0.224951994744527E+00  0.469336120168228E-02
 -0.112343328682423E+00 -0.112343328682423E+00  0.773980834851448E-02
 -0.112343328682423E+00  0.414186545644071E-17  0.914270183740806E-02
 -0.112343328682423E+00  0.112343328682423E+00  0.773980834851448E-02
 -0.112343328682423E+00  0.224951994744527E+00  0.469336120168229E-02
 -0.112343328682423E+00  0.337641464801303E+00  0.204014826298957E-02
 -0.112343328682423E+00  0.449536557024029E+00  0.640926921813639E-03
 -0.112343328682423E+00  0.560523029461074E+00  0.146145160901747E-03
 -0.112343328682423E+00  0.675337414025638E+00  0.223759869598463E-04
 -0.112343328682423E+00  0.798443291855323E+00  0.204775262501718E-05
 -0.112343328682423E+00  0.904141431802467E+00  0.178857405018816E-06
 -0.112343328682423E+00  0.975060457533844E+00  0.121383297234468E-07
 -0.112343328682423E+00  0.100000000000000E+01  0.000000000000000E+00
  0.414186545644071E-17 -0.100000000000000E+01  0.000000000000000E+00
  0.414186545644071E-17 -0.975060457533844E+00  0.489650250697677E-07
  0.414186545644071E-17 -0.904141431802467E+00  0.721496075316774E-06
  0.414186545644071E-17 -0.798443291855323E+00  0.826046581762139E-05
  0.414186545644071E-17 -0.675337414025638E+00  0.902628926003916E-04
  0.414186545644071E-17 -0.560523029461074E+00  0.589537569082948E-03
  0.414186545644071E-17 -0.449536557024029E+00  0.258544653173872E-02
  0.414186545644071E-17 -0.337641464801303E+00  0.822979043409052E-02
  0.414186545644071E-17 -0.224951994744527E+00  0.189326333861073E-01
  0.414186545644071E-17 -0.112343328682423E+00  0.312217508156036E-01
  0.414186545644071E-17  0.414186545644071E-17  0.368809078577051E-01
  0.414186545644071E-17  0.112343328682423E+00  0.312217508156037E-01
  0.414186545644071E-17  0.224951994744527E+00  0.189326333861073E-01
  0.414186545644071E-17  0.337641464801303E+00  0.822979043409052E-02
  0.414186545644071E-17  0.449536557024029E+00  0.258544653173873E-02
  0.414186545644071E-17  0.560523029461074E+00  0.589537569082949E-03
  0.414186545644071E-17  0.675337414025638E+00  0.902628926003921E-04
  0.414186545644071E-17  0.798443291855323E+00  0.826046581762160E-05
  0.414186545644071E-17  0.904141431802467E+00  0.721496075316855E-06
  0.414186545644071E-17  0.975060457533844E+00  0.489650250697642E-07
  0.414186545644071E-17  0.100000000000000E+01  0.000000000000000E+00
  0.112343328682423E+00 -0.100000000000000E+01  0.000000000000000E+00
  0.112343328682423E+00 -0.975060457533844E+00  0.152952738539121E-06
  0.112343328682423E+00 -0.904141431802467E+00  0.225374741073540E-05
  0.112343328682423E+00 -0.798443291855323E+00  0.258033329769897E-04
  0.112343328682423E+00 -0.675337414025638E+00  0.281955464093489E-03
  0.112343328682423E+00 -0.560523029461074E+00  0.184154677597273E-02
  0.112343328682423E+00 -0.449536557024029E+00  0.807619560185860E-02
  0.112343328682423E+00 -0.337641464801303E+00  0.257075118159265E-01
  0.112343328682423E+00 -0.224951994744527E+00  0.591401324325957E-01
  0.112343328682423E+00 -0.112343328682423E+00  0.975278208521131E-01
  0.112343328682423E+00  0.414186545644071E-17  0.115205409044107E+00
  0.112343328682423E+00  0.112343328682423E+00  0.975278208521132E-01
  0.112343328682423E+00  0.224951994744527E+00  0.591401324325957E-01
  0.112343328682423E+00  0.337641464801303E+00  0.257075118159265E-01
  0.112343328682423E+00  0.449536557024029E+00  0.807619560185861E-02
  0.112343328682423E+00  0.560523029461074E+00  0.184154677597274E-02
  0.112343328682423E+00  0.675337414025638E+00  0.281955464093491E-03
  0.112343328682423E+00  0.798443291855323E+00  0.258033329769904E-04
  0.112343328682423E+00  0.904141431802467E+00  0.225374741073566E-05
  0.112343328682423E+00  0.975060457533844E+00  0.152952738539106E-06
  0.112343328682423E+00  0.100000000000000E+01  0.000000000000000E+00
  0.224951994744527E+00 -0.100000000000000E+01  0.000000000000000E+00
  0.224951994744527E+00 -0.975060457533844E+00  0.359328416863459E-06
  0.224951994744527E+00 -0.904141431802467E+00  0.529467789361162E-05
  0.224951994744527E+00 -0.798443291855323E+00  0.606191874921110E-04
  0.224951994744527E+00 -0.675337414025638E+00  0.662391605302887E-03
  0.224951994744527E+00 -0.560523029461074E+00  0.432630426163017E-02
  0.224951994744527E+00 -0.449536557024029E+00  0.189732239849641E-01
  0.224951994744527E+00 -0.337641464801303E+00  0.603940770896671E-01
  0.224951994744527E+00 -0.224951994744527E+00  0.138936577843043E+00
  0.224951994744527E+00 -0.112343328682423E+00  0.229119907474488E+00
  0.224951994744527E+00  0.414186545644071E-17  0.270649466254029E+00
  0.224951994744527E+00  0.112343328682423E+00  0.229119907474488E+00
  0.224951994744527E+00  0.224951994744527E+00  0.138936577843043E+00
  0.224951994744527E+00  0.337641464801303E+00  0.603940770896671E-01
  0.224951994744527E+00  0.449536557024029E+00  0.189732239849641E-01
  0.224951994744527E+00  0.560523029461074E+00  0.432630426163018E-02
  0.224951994744527E+00  0.675337414025638E+00  0.662391605302890E-03
  0.224951994744527E+00  0.798443291855323E+00  0.606191874921125E-04
  0.224951994744527E+00  0.904141431802467E+00  0.529467789361226E-05
  0.224951994744527E+00  0.975060457533844E+00  0.359328416863378E-06
  0.224951994744527E+00  0.100000000000000E+01  0.000000000000000E+00
  0.337641464801303E+00 -0.100000000000000E+01  0.000000000000000E+00
  0.337641464801303E+00 -0.975060457533844E+00  0.596018280954872E-06
  0.337641464801303E+00 -0.904141431802467E+00  0.878228571576813E-05
  0.337641464801303E+00 -0.798443291855323E+00  0.100549086249765E-03
  0.337641464801303E+00 -0.675337414025638E+00  0.109870939242967E-02
  0.337641464801303E+00 -0.560523029461074E+00  0.717604373440799E-02
  0.337641464801303E+00 -0.449536557024029E+00  0.314708991620106E-01
  0.337641464801303E+00 -0.337641464801303E+00  0.100175695611828E+00
  0.337641464801303E+00 -0.224951994744527E+00  0.230454193597419E+00
  0.337641464801303E+00 -0.112343328682423E+00  0.380041342152405E+00
  0.337641464801303E+00  0.414186545644071E-17  0.448926448788781E+00
  0.337641464801303E+00  0.112343328682423E+00  0.380041342152406E+00
  0.337641464801303E+00  0.224951994744527E+00  0.230454193597419E+00
  0.337641464801303E+00  0.337641464801303E+00  0.100175695611828E+00
  0.337641464801303E+00  0.449536557024029E+00  0.314708991620107E-01
  0.337641464801303E+00  0.560523029461074E+00  0.717604373440801E-02
  0.337641464801303E+00  0.675337414025638E+00  0.109870939242968E-02
  0.337641464801303E+00  0.798443291855323E+00  0.100549086249768E-03
  0.337641464801303E+00  0.904141431802467E+00  0.878228571576912E-05
  0.337641464801303E+00  0.975060457533844E+00  0.596018280954807E-06
  0.337641464801303E+00  0.100000000000000E+01  0.000000000000000E+00
  0.449536557024029E+00 -0.100000000000000E+01  0.000000000000000E+00
  0.449536557024029E+00 -0.975060457533844E+00  0.698412436635367E-06
  0.449536557024029E+00 -0.904141431802467E+00  0.102910561355113E-04
  0.449536557024029E+00 -0.798443291855323E+00  0.117823118369478E-03
  0.449536557024029E+00 -0.675337414025638E+00  0.128746437731018E-02
  0.449536557024029E+00 -0.560523029461074E+00  0.840886656755360E-02
  0.449536557024029E+00 -0.449536557024029E+00  0.368775054424062E-01
  0.449536557024029E+00 -0.337641464801303E+00  0.117385580313599E+00
  0.449536557024029E+00 -0.224951994744527E+00  0.270045534417980E+00
  0.449536557024029E+00 -0.112343328682423E+00  0.445331307512752E+00
  0.449536557024029E+00  0.414186545644071E-17  0.526050669363749E+00
  0.449536557024029E+00  0.112343328682423E+00  0.445331307512752E+00
  0.449536557024029E+00  0.224951994744527E+00  0.270045534417980E+00
  0.449536557024029E+00  0.337641464801303E+00  0.117385580313599E+00
  0.449536557024029E+00  0.449536557024029E+00  0.368775054424062E-01
  0.449536557024029E+00  0.560523029461074E+00  0.840886656755361E-02
  0.449536557024029E+00  0.675337414025638E+00  0.128746437731019E-02
  0.449536557024029E+00  0.798443291855323E+00  0.117823118369481E-03
  0.449536557024029E+00  0.904141431802467E+00  0.102910561355125E-04
  0.449536557024029E+00  0.975060457533844E+00  0.698412436635221E-06
  0.449536557024029E+00  0.100000000000000E+01  0.000000000000000E+00
  0.560523029461074E+00 -0.100000000000000E+01  0.000000000000000E+00
  0.560523029461074E+00 -0.975060457533844E+00  0.591931691119222E-06
  0.560523029461074E+00 -0.904141431802467E+00  0.872207015367952E-05
  0.560523029461074E+00 -0.798443291855323E+00  0.998596731921354E-04
  0.560523029461074E+00 -0.675337414025638E+00  0.109117610876700E-02
  0.560523029461074E+00 -0.560523029461074E+00  0.712684129859817E-02
  0.560523029461074E+00 -0.449536557024029E+00  0.312551194161033E-01
  0.560523029461074E+00 -0.337641464801303E+00  0.994888424921203E-01
  0.560523029461074E+00 -0.224951994744527E+00  0.228874088026550E+00
  0.560523029461074E+00 -0.112343328682423E+00  0.377435594721381E+00
  0.560523029461074E+00  0.414186545644071E-17  0.445848391751435E+00
  0.560523029461074E+00  0.112343328682423E+00  0.377435594721381E+00
  0.560523029461074E+00  0.224951994744527E+00  0.228874088026550E+00
  0.560523029461074E+00  0.337641464801303E+00  0.994888424921203E-01
  0.560523029461074E+00  0.449536557024029E+00  0.312551194161033E-01
  0.560523029461074E+00  0.560523029461074E+00  0.712684129859818E-02
  0.560523029461074E+00  0.675337414025638E+00  0.109117610876701E-02
  0.560523029461074E+00  0.798443291855323E+00  0.998596731921379E-04
  0.560523029461074E+00  0.904141431802467E+00  0.872207015368054E-05
  0.560523029461074E+00  0.975060457533844E+00  0.591931691119147E-06
  0.560523029461074E+00  0.100000000000000E+01  0.000000000000000E+00
  0.675337414025638E+00 -0.100000000000000E+01  0.000000000000000E+00
  0.675337414025638E+00 -0.975060457533844E+00  0.358863225203488E-06
  0.675337414025638E+00 -0.904141431802467E+00  0.528782335434778E-05
  0.675337414025638E+00 -0.798443291855323E+00  0.605407090938498E-04
  0.675337414025638E+00 -0.675337414025638E+00  0.661534062687467E-03
  0.675337414025638E+00 -0.560523029461074E+00  0.432070335464380E-02
  0.675337414025638E+00 -0.449536557024029E+00  0.189486609234702E-01
  0.675337414025638E+00 -0.337641464801303E+00  0.603158898953807E-01
  0.675337414025638E+00 -0.224951994744527E+00  0.138756708242043E+00
  0.675337414025638E+00 -0.112343328682423E+00  0.228823285088124E+00
  0.675337414025638E+00  0.414186545644071E-17  0.270299079041033E+00
  0.675337414025638E+00  0.112343328682423E+00  0.228823285088124E+00
  0.675337414025638E+00  0.224951994744527E+00  0.138756708242043E+00
  0.675337414025638E+00  0.337641464801303E+00  0.603158898953807E-01
  0.675337414025638E+00  0.449536557024029E+00  0.189486609234702E-01
  0.675337414025638E+00  0.560523029461074E+00  0.432070335464380E-02
  0.675337414025638E+00  0.675337414025638E+00  0.661534062687471E-03
  0.675337414025638E+00  0.798443291855323E+00  0.605407090938515E-04
  0.675337414025638E+00  0.904141431802467E+00  0.528782335434837E-05
  0.675337414025638E+00  0.975060457533844E+00  0.358863225203472E-06
  0.675337414025638E+00  0.100000000000000E+01  0.000000000000000E+00
  0.798443291855323E+00 -0.100000000000000E+01  0.000000000000000E+00
  0.798443291855323E+00 -0.975060457533844E+00  0.142765492499628E-06
  0.798443291855323E+00 -0.904141431802467E+00  0.210363908350582E-05
  0.798443291855323E+00 -0.798443291855323E+00  0.240847308733269E-04
  0.798443291855323E+00 -0.675337414025638E+00  0.263176135818667E-03
  0.798443291855323E+00 -0.560523029461074E+00  0.171889261081107E-02
  0.798443291855323E+00 -0.449536557024029E+00  0.753828961236646E-02
  0.798443291855323E+00 -0.337641464801303E+00  0.239952916857168E-01
  0.798443291855323E+00 -0.224951994744527E+00  0.552011699016862E-01
  0.798443291855323E+00 -0.112343328682423E+00  0.910320891435812E-01
  0.798443291855323E+00  0.414186545644071E-17  0.107532281284076E+00
  0.798443291855323E+00  0.112343328682423E+00  0.910320891435813E-01
  0.798443291855323E+00  0.224951994744527E+00  0.552011699016862E-01
  0.798443291855323E+00  0.337641464801303E+00  0.239952916857168E-01
  0.798443291855323E+00  0.449536557024029E+00  0.753828961236646E-02
  0.798443291855323E+00  0.560523029461074E+00  0.171889261081108E-02
  0.798443291855323E+00  0.675337414025638E+00  0.263176135818669E-03
  0.798443291855323E+00  0.798443291855323E+00  0.240847308733276E-04
  0.798443291855323E+00  0.904141431802467E+00  0.210363908350606E-05
  0.798443291855323E+00  0.975060457533844E+00  0.142765492499620E-06
  0.798443291855323E+00  0.100000000000000E+01  0.000000000000000E+00
  0.904141431802467E+00 -0.100000000000000E+01  0.000000000000000E+00
  0.904141431802467E+00 -0.975060457533844E+00  0.464001607123203E-07
  0.904141431802467E+00 -0.904141431802467E+00  0.683702990520562E-06
  0.904141431802467E+00 -0.798443291855323E+00  0.782776994108011E-05
  0.904141431802467E+00 -0.675337414025638E+00  0.855347842938855E-04
  0.904141431802467E+00 -0.560523029461074E+00  0.558656690424522E-03
  0.904141431802467E+00 -0.449536557024029E+00  0.245001688960676E-02
  0.904141431802467E+00 -0.337641464801303E+00  0.779870141734933E-02
  0.904141431802467E+00 -0.224951994744527E+00  0.179409130512345E-01
  0.904141431802467E+00 -0.112343328682423E+00  0.295863076560890E-01
  0.904141431802467E+00  0.414186545644071E-17  0.349490293654124E-01
  0.904141431802467E+00  0.112343328682423E+00  0.295863076560891E-01
  0.904141431802467E+00  0.224951994744527E+00  0.179409130512346E-01
  0.904141431802467E+00  0.337641464801303E+00  0.779870141734933E-02
  0.904141431802467E+00  0.449536557024029E+00  0.245001688960676E-02
  0.904141431802467E+00  0.560523029461074E+00  0.558656690424522E-03
  0.904141431802467E+00  0.675337414025638E+00  0.855347842938859E-04
  0.904141431802467E+00  0.798443291855323E+00  0.782776994108031E-05
  0.904141431802467E+00  0.904141431802467E+00  0.683702990520641E-06
  0.904141431802467E+00  0.975060457533844E+00  0.464001607123130E-07
  0.904141431802467E+00  0.100000000000000E+01  0.000000000000000E+00
  0.975060457533844E+00 -0.100000000000000E+01  0.000000000000000E+00
  0.975060457533844E+00 -0.975060457533844E+00  0.182963688423824E-07
  0.975060457533844E+00 -0.904141431802467E+00  0.269595679999287E-06
  0.975060457533844E+00 -0.798443291855323E+00  0.308662246376410E-05
  0.975060457533844E+00 -0.675337414025638E+00  0.337278167343237E-04
  0.975060457533844E+00 -0.560523029461074E+00  0.220287813199486E-03
  0.975060457533844E+00 -0.449536557024029E+00  0.966083237880460E-03
  0.975060457533844E+00 -0.337641464801303E+00  0.307516032114894E-02
  0.975060457533844E+00 -0.224951994744527E+00  0.707440649545204E-02
  0.975060457533844E+00 -0.112343328682423E+00  0.116663832260950E-01
  0.975060457533844E+00  0.414186545644071E-17  0.137809954085163E-01
  0.975060457533844E+00  0.112343328682423E+00  0.116663832260950E-01
  0.975060457533844E+00  0.224951994744527E+00  0.707440649545205E-02
  0.975060457533844E+00  0.337641464801303E+00  0.307516032114894E-02
  0.975060457533844E+00  0.449536557024029E+00  0.966083237880461E-03
  0.975060457533844E+00  0.560523029461074E+00  0.220287813199487E-03
  0.975060457533844E+00  0.675337414025638E+00  0.337278167343239E-04
  0.975060457533844E+00  0.798443291855323E+00  0.308662246376418E-05
  0.975060457533844E+00  0.904141431802467E+00  0.269595679999318E-06
  0.975060457533844E+00  0.975060457533844E+00  0.182963688423804E-07
  0.975060457533844E+00  0.100000000000000E+01  0.000000000000000E+00
  0.100000000000000E+01 -0.100000000000000E+01  0.000000000000000E+00
  0.100000000000000E+01 -0.975060457533844E+00  0.126448283610584E-07
  0.100000000000000E+01 -0.904141431802467E+00  0.186320644393085E-06
  0.100000000000000E+01 -0.798443291855323E+00  0.213319995852487E-05
  0.100000000000000E+01 -0.675337414025638E+00  0.233096786576338E-04
  0.100000000000000E+01 -0.560523029461074E+00  0.152243419627039E-03
  0.100000000000000E+01 -0.449536557024029E+00  0.667671143067717E-03