 VARIABLES =  $x$  (c)
 ZONE I=         441 ,DATAPACKING=POINT
 -0.100000000000000E+01 -0.100000000000000E+01  0.000000000000000E+00
 -0.100000000000000E+01 -0.975060457533844E+00  0.000000000000000E+00
 -0.100000000000000E+01 -0.904141431802467E+00  0.000000000000000E+00
 -0.100000000000000E+01 -0.798443291855323E+00  0.000000000000000E+00
 -0.100000000000000E+01 -0.675337414025638E+00  0.000000000000000E+00
 -0.100000000000000E+01 -0.560523029461074E+00  0.000000000000000E+00
 -0.100000000000000E+01 -0.449536557024029E+00  0.000000000000000E+00
 -0.100000000000000E+01 -0.337641464801303E+00  0.000000000000000E+00
 -0.100000000000000E+01 -0.224951994744527E+00  0.000000000000000E+00
 -0.100000000000000E+01 -0.112343328682423E+00  0.000000000000000E+00
 -0.100000000000000E+01  0.414186545644071E-17  0.000000000000000E+00
 -0.100000000000000E+01  0.112343328682423E+00  0.000000000000000E+00
 -0.100000000000000E+01  0.224951994744527E+00  0.000000000000000E+00
 -0.100000000000000E+01  0.337641464801303E+00  0.000000000000000E+00
 -0.100000000000000E+01  0.449536557024029E+00  0.000000000000000E+00
 -0.100000000000000E+01  0.560523029461074E+00  0.000000000000000E+00
 -0.100000000000000E+01  0.675337414025638E+00  0.000000000000000E+00
 -0.100000000000000E+01  0.798443291855323E+00  0.000000000000000E+00
 -0.100000000000000E+01  0.904141431802467E+00  0.000000000000000E+00
 -0.100000000000000E+01  0.975060457533844E+00  0.000000000000000E+00
 -0.100000000000000E+01  0.100000000000000E+01  0.000000000000000E+00
 -0.975060457533844E+00 -0.100000000000000E+01  0.000000000000000E+00
 -0.975060457533844E+00 -0.975060457533844E+00 -0.271867703927494E-10
 -0.975060457533844E+00 -0.904141431802467E+00 -0.143547396056649E-09
 -0.975060457533844E+00 -0.798443291855323E+00 -0.744260258006124E-09
 -0.975060457533844E+00 -0.675337414025638E+00 -0.376989880933096E-08
 -0.975060457533844E+00 -0.560523029461074E+00 -0.133993321405400E-07
 -0.975060457533844E+00 -0.449536557024029E+00 -0.364493751691583E-07
 -0.975060457533844E+00 -0.337641464801303E+00 -0.799887808496569E-07
 -0.975060457533844E+00 -0.224951994744527E+00 -0.140866726364103E-06
 -0.975060457533844E+00 -0.112343328682423E+00 -0.197776516681802E-06
 -0.975060457533844E+00  0.414186545644071E-17 -0.221397247947634E-06
 -0.975060457533844E+00  0.112343328682423E+00 -0.197776516681815E-06
 -0.975060457533844E+00  0.224951994744527E+00 -0.140866726364108E-06
 -0.975060457533844E+00  0.337641464801303E+00 -0.799887808496567E-07
 -0.975060457533844E+00  0.449536557024029E+00 -0.364493751691583E-07
 -0.975060457533844E+00  0.560523029461074E+00 -0.133993321405401E-07
 -0.975060457533844E+00  0.675337414025638E+00 -0.376989880933103E-08
 -0.975060457533844E+00  0.798443291855323E+00 -0.744260258006098E-09
 -0.975060457533844E+00  0.904141431802467E+00 -0.143547396056617E-09
 -0.975060457533844E+00  0.975060457533844E+00 -0.271867703927415E-10
 -0.975060457533844E+00  0.100000000000000E+01  0.000000000000000E+00
 -0.904141431802467E+00 -0.100000000000000E+01  0.000000000000000E+00
 -0.904141431802467E+00 -0.975060457533844E+00  0.346229081158621E-10
 -0.904141431802467E+00 -0.904141431802467E+00  0.182810545595112E-09
 -0.904141431802467E+00 -0.798443291855323E+00  0.947830687404785E-09
 -0.904141431802467E+00 -0.675337414025638E+00  0.480104352138569E-08
 -0.904141431802467E+00 -0.560523029461074E+00  0.170643250166877E-07
 -0.904141431802467E+00 -0.449536557024029E+00  0.464190298912915E-07
 -0.904141431802467E+00 -0.337641464801303E+00  0.101867361578683E-06
 -0.904141431802467E+00 -0.224951994744527E+00  0.179396682817070E-06
 -0.904141431802467E+00 -0.112343328682423E+00  0.251872477213059E-06
 -0.904141431802467E+00  0.414186545644071E-17  0.281953966922628E-06
 -0.904141431802467E+00  0.112343328682423E+00  0.251872477213110E-06
 -0.904141431802467E+00  0.224951994744527E+00  0.179396682817079E-06
 -0.904141431802467E+00  0.337641464801303E+00  0.101867361578675E-06
 -0.904141431802467E+00  0.449536557024029E+00  0.464190298912895E-07
 -0.904141431802467E+00  0.560523029461074E+00  0.170643250166883E-07
 -0.904141431802467E+00  0.675337414025638E+00  0.480104352138582E-08
 -0.904141431802467E+00  0.798443291855323E+00  0.947830687404489E-09
 -0.904141431802467E+00  0.904141431802467E+00  0.182810545594919E-09
 -0.904141431802467E+00  0.975060457533844E+00  0.346229081158140E-10
 -0.904141431802467E+00  0.100000000000000E+01  0.000000000000000E+00
 -0.798443291855323E+00 -0.100000000000000E+01  0.000000000000000E+00
 -0.798443291855323E+00 -0.975060457533844E+00 -0.152812664003380E-09
 -0.798443291855323E+00 -0.904141431802467E+00 -0.806857883505990E-09
 -0.798443291855323E+00 -0.798443291855323E+00 -0.418337270599241E-08
 -0.798443291855323E+00 -0.675337414025638E+00 -0.211900228246709E-07
 -0.798443291855323E+00 -0.560523029461074E+00 -0.753155905244065E-07
 -0.798443291855323E+00 -0.449536557024029E+00 -0.204876347231985E-06
 -0.798443291855323E+00 -0.337641464801303E+00 -0.449604669698554E-06
 -0.798443291855323E+00 -0.224951994744527E+00 -0.791790266417800E-06
 -0.798443291855323E+00 -0.112343328682423E+00 -0.111167147171154E-05
 -0.798443291855323E+00  0.414186545644071E-17 -0.124443998044049E-05
 -0.798443291855323E+00  0.112343328682423E+00 -0.111167147171160E-05
 -0.798443291855323E+00  0.224951994744527E+00 -0.791790266417823E-06
 -0.798443291855323E+00  0.337641464801303E+00 -0.449604669698554E-06
 -0.798443291855323E+00  0.449536557024029E+00 -0.204876347231984E-06
 -0.798443291855323E+00  0.560523029461074E+00 -0.753155905244062E-07
 -0.798443291855323E+00  0.675337414025638E+00 -0.211900228246707E-07
 -0.798443291855323E+00  0.798443291855323E+00 -0.418337270599214E-08
 -0.798443291855323E+00  0.904141431802467E+00 -0.806857883505820E-09
 -0.798443291855323E+00  0.975060457533844E+00 -0.152812664003339E-09
 -0.798443291855323E+00  0.100000000000000E+01  0.000000000000000E+00
 -0.675337414025638E+00 -0.100000000000000E+01  0.000000000000000E+00
 -0.675337414025638E+00 -0.975060457533844E+00  0.317566636852573E-09
 -0.675337414025638E+00 -0.904141431802467E+00  0.167676642283913E-08
 -0.675337414025638E+00 -0.798443291855323E+00  0.869364850640537E-08
 -0.675337414025638E+00 -0.675337414025638E+00  0.440359063278144E-07
 -0.675337414025638E+00 -0.560523029461074E+00  0.156516597070222E-06
 -0.675337414025638E+00 -0.449536557024029E+00  0.425762425493251E-06
 -0.675337414025638E+00 -0.337641464801303E+00  0.934342965444320E-06
 -0.675337414025638E+00 -0.224951994744527E+00  0.164545369097545E-05
 -0.675337414025638E+00 -0.112343328682423E+00  0.231021269214885E-05
 -0.675337414025638E+00  0.414186545644071E-17  0.258612468603547E-05
 -0.675337414025638E+00  0.112343328682423E+00  0.231021269214892E-05
 -0.675337414025638E+00  0.224951994744527E+00  0.164545369097547E-05
 -0.675337414025638E+00  0.337641464801303E+00  0.934342965444315E-06
 -0.675337414025638E+00  0.449536557024029E+00  0.425762425493250E-06
 -0.675337414025638E+00  0.560523029461074E+00  0.156516597070224E-06
 -0.675337414025638E+00  0.675337414025638E+00  0.440359063278154E-07
 -0.675337414025638E+00  0.798443291855323E+00  0.869364850640544E-08
 -0.675337414025638E+00  0.904141431802467E+00  0.167676642283902E-08
 -0.675337414025638E+00  0.975060457533844E+00  0.317566636852542E-09
 -0.675337414025638E+00  0.100000000000000E+01  0.000000000000000E+00
 -0.560523029461074E+00 -0.100000000000000E+01  0.000000000000000E+00
 -0.560523029461074E+00 -0.975060457533844E+00 -0.270450720232766E-09
 -0.560523029461074E+00 -0.904141431802467E+00 -0.142799222343416E-08
 -0.560523029461074E+00 -0.798443291855323E+00 -0.740381150336464E-08
 -0.560523029461074E+00 -0.675337414025638E+00 -0.375024997793855E-07
 -0.560523029461074E+00 -0.560523029461074E+00 -0.133294943743242E-06
 -0.560523029461074E+00 -0.449536557024029E+00 -0.362593997210686E-06
 -0.560523029461074E+00 -0.337641464801303E+00 -0.795718762612588E-06
 -0.560523029461074E+00 -0.224951994744527E+00 -0.140132523294809E-05
 -0.560523029461074E+00 -0.112343328682423E+00 -0.196745697209121E-05
 -0.560523029461074E+00  0.414186545644071E-17 -0.220243316128149E-05
 -0.560523029461074E+00  0.112343328682423E+00 -0.196745697209149E-05
 -0.560523029461074E+00  0.224951994744527E+00 -0.140132523294821E-05
 -0.560523029461074E+00  0.337641464801303E+00 -0.795718762612610E-06
 -0.560523029461074E+00  0.449536557024029E+00 -0.362593997210699E-06
 -0.560523029461074E+00  0.560523029461074E+00 -0.133294943743249E-06
 -0.560523029461074E+00  0.675337414025638E+00 -0.375024997793881E-07
 -0.560523029461074E+00  0.798443291855323E+00 -0.740381150336431E-08
 -0.560523029461074E+00  0.904141431802467E+00 -0.142799222343352E-08
 -0.560523029461074E+00  0.975060457533844E+00 -0.270450720232610E-09
 -0.560523029461074E+00  0.100000000000000E+01  0.000000000000000E+00
 -0.449536557024029E+00 -0.100000000000000E+01  0.000000000000000E+00
 -0.449536557024029E+00 -0.975060457533844E+00  0.711017533102308E-09
 -0.449536557024029E+00 -0.904141431802467E+00  0.375420521513343E-08
 -0.449536557024029E+00 -0.798443291855323E+00  0.194646910273979E-07
 -0.449536557024029E+00 -0.675337414025638E+00  0.985944281398786E-07
 -0.449536557024029E+00 -0.560523029461074E+00  0.350433669542568E-06
 -0.449536557024029E+00 -0.449536557024029E+00  0.953263045256920E-06
 -0.449536557024029E+00 -0.337641464801303E+00  0.209195213432282E-05
 -0.449536557024029E+00 -0.224951994744527E+00  0.368409724388322E-05
 -0.449536557024029E+00 -0.112343328682423E+00  0.517246290967481E-05
 -0.449536557024029E+00  0.414186545644071E-17  0.579021751985540E-05
 -0.449536557024029E+00  0.112343328682423E+00  0.517246290967514E-05
 -0.449536557024029E+00  0.224951994744527E+00  0.368409724388337E-05
 -0.449536557024029E+00  0.337641464801303E+00  0.209195213432284E-05
 -0.449536557024029E+00  0.449536557024029E+00  0.953263045256918E-06
 -0.449536557024029E+00  0.560523029461074E+00  0.350433669542563E-06
 -0.449536557024029E+00  0.675337414025638E+00  0.985944281398813E-07
 -0.449536557024029E+00  0.798443291855323E+00  0.194646910273994E-07
 -0.449536557024029E+00  0.904141431802467E+00  0.375420521513326E-08
 -0.449536557024029E+00  0.975060457533844E+00  0.711017533102275E-09
 -0.449536557024029E+00  0.100000000000000E+01  0.000000000000000E+00
 -0.337641464801303E+00 -0.100000000000000E+01  0.000000000000000E+00
 -0.337641464801303E+00 -0.975060457533844E+00  0.165018171690540E-10
 -0.337641464801303E+00 -0.904141431802467E+00  0.871303695388477E-10
 -0.337641464801303E+00 -0.798443291855323E+00  0.451751319560691E-09
 -0.337641464801303E+00 -0.675337414025638E+00  0.228825667978149E-08
 -0.337641464801303E+00 -0.560523029461074E+00  0.813314630892567E-08
 -0.337641464801303E+00 -0.449536557024029E+00  0.221241113477163E-07
 -0.337641464801303E+00 -0.337641464801303E+00  0.485517707024410E-07
 -0.337641464801303E+00 -0.224951994744527E+00  0.855036382744346E-07
 -0.337641464801303E+00 -0.112343328682423E+00  0.120046914241828E-06
 -0.337641464801303E+00  0.414186545644071E-17  0.134384298990439E-06
 -0.337641464801303E+00  0.112343328682423E+00  0.120046914241327E-06
 -0.337641464801303E+00  0.224951994744527E+00  0.855036382741636E-07
 -0.337641464801303E+00  0.337641464801303E+00  0.485517707023105E-07
 -0.337641464801303E+00  0.449536557024029E+00  0.221241113476636E-07
 -0.337641464801303E+00  0.560523029461074E+00  0.813314630891077E-08
 -0.337641464801303E+00  0.675337414025638E+00  0.228825667976775E-08
 -0.337641464801303E+00  0.798443291855323E+00  0.451751319555472E-09
 -0.337641464801303E+00  0.904141431802467E+00  0.871303695388266E-10
 -0.337641464801303E+00  0.975060457533844E+00  0.165018171690139E-10
 -0.337641464801303E+00  0.100000000000000E+01  0.000000000000000E+00
 -0.224951994744527E+00 -0.100000000000000E+01  0.000000000000000E+00
 -0.224951994744527E+00 -0.975060457533844E+00 -0.291374681618756E-08
 -0.224951994744527E+00 -0.904141431802467E+00 -0.153847169713187E-07
 -0.224951994744527E+00 -0.798443291855323E+00 -0.797662214781395E-07
 -0.224951994744527E+00 -0.675337414025638E+00 -0.404039553489124E-06
 -0.224951994744527E+00 -0.560523029461074E+00 -0.143607572347130E-05
 -0.224951994744527E+00 -0.449536557024029E+00 -0.390646803553503E-05
 -0.224951994744527E+00 -0.337641464801303E+00 -0.857281129353685E-05
 -0.224951994744527E+00 -0.224951994744527E+00 -0.150974155189740E-04
 -0.224951994744527E+00 -0.112343328682423E+00 -0.211967320278227E-04
 -0.224951994744527E+00  0.414186545644071E-17 -0.237282879394805E-04
 -0.224951994744527E+00  0.112343328682423E+00 -0.211967320278222E-04
 -0.224951994744527E+00  0.224951994744527E+00 -0.150974155189737E-04
 -0.224951994744527E+00  0.337641464801303E+00 -0.857281129353673E-05
 -0.224951994744527E+00  0.449536557024029E+00 -0.390646803553504E-05
 -0.224951994744527E+00  0.560523029461074E+00 -0.143607572347134E-05
 -0.224951994744527E+00  0.675337414025638E+00 -0.404039553489122E-06
 -0.224951994744527E+00  0.798443291855323E+00 -0.797662214781349E-07
 -0.224951994744527E+00  0.904141431802467E+00 -0.153847169713197E-07
 -0.224951994744527E+00  0.975060457533844E+00 -0.291374681618763E-08
 -0.224951994744527E+00  0.100000000000000E+01  0.000000000000000E+00
 -0.112343328682423E+00 -0.100000000000000E+01  0.000000000000000E+00
 -0.112343328682423E+00 -0.975060457533844E+00  0.426202805610335E-08
 -0.112343328682423E+00 -0.904141431802467E+00  0.225037037766456E-07
 -0.112343328682423E+00 -0.798443291855323E+00  0.116676530998196E-06
 -0.112343328682423E+00 -0.675337414025638E+00  0.591001206393191E-06
 -0.112343328682423E+00 -0.560523029461074E+00  0.210059256077771E-05
 -0.112343328682423E+00 -0.449536557024029E+00  0.571411209751628E-05
 -0.112343328682423E+00 -0.337641464801303E+00  0.125397172506854E-04
 -0.112343328682423E+00 -0.224951994744527E+00  0.220834584045681E-04
 -0.112343328682423E+00 -0.112343328682423E+00  0.310051180115115E-04
 -0.112343328682423E+00  0.414186545644071E-17  0.347081034343501E-04
 -0.112343328682423E+00  0.112343328682423E+00  0.310051180115111E-04
 -0.112343328682423E+00  0.224951994744527E+00  0.220834584045680E-04
 -0.112343328682423E+00  0.337641464801303E+00  0.125397172506853E-04
 -0.112343328682423E+00  0.449536557024029E+00  0.571411209751638E-05
 -0.112343328682423E+00  0.560523029461074E+00  0.210059256077783E-05
 -0.112343328682423E+00  0.675337414025638E+00  0.591001206393209E-06
 -0.112343328682423E+00  0.798443291855323E+00  0.116676530998190E-06
 -0.112343328682423E+00  0.904141431802467E+00  0.225037037766468E-07
 -0.112343328682423E+00  0.975060457533844E+00  0.426202805610331E-08
 -0.112343328682423E+00  0.100000000000000E+01  0.000000000000000E+00
  0.414186545644071E-17 -0.100000000000000E+01  0.000000000000000E+00
  0.414186545644071E-17 -0.975060457533844E+00  0.292640730704493E-07
  0.414186545644071E-17 -0.904141431802467E+00  0.154515649021189E-06
  0.414186545644071E-17 -0.798443291855323E+00  0.801128121592798E-06
  0.414186545644071E-17 -0.675337414025638E+00  0.405795136400334E-05
  0.414186545644071E-17 -0.560523029461074E+00  0.144231558192223E-04
  0.414186545644071E-17 -0.449536557024029E+00  0.392344194216077E-04
  0.414186545644071E-17 -0.337641464801303E+00  0.861006084412993E-04
  0.414186545644071E-17 -0.224951994744527E+00  0.151630150349456E-03
  0.414186545644071E-17 -0.112343328682423E+00  0.212888336170471E-03
  0.414186545644071E-17  0.414186545644071E-17  0.238313893690920E-03
  0.414186545644071E-17  0.112343328682423E+00  0.212888336170472E-03
  0.414186545644071E-17  0.224951994744527E+00  0.151630150349457E-03
  0.414186545644071E-17  0.337641464801303E+00  0.861006084412998E-04
  0.414186545644071E-17  0.449536557024029E+00  0.392344194216077E-04
  0.414186545644071E-17  0.560523029461074E+00  0.144231558192222E-04
  0.414186545644071E-17  0.675337414025638E+00  0.405795136400330E-05
  0.414186545644071E-17  0.798443291855323E+00  0.801128121592806E-06
  0.414186545644071E-17  0.904141431802467E+00  0.154515649021190E-06
  0.414186545644071E-17  0.975060457533844E+00  0.292640730704498E-07
  0.414186545644071E-17  0.100000000000000E+01  0.000000000000000E+00
  0.112343328682423E+00 -0.100000000000000E+01  0.000000000000000E+00
  0.112343328682423E+00 -0.975060457533844E+00  0.168274280102682E-06
  0.112343328682423E+00 -0.904141431802467E+00  0.888495922133589E-06
  0.112343328682423E+00 -0.798443291855323E+00  0.460664710615381E-05
  0.112343328682423E+00 -0.675337414025638E+00  0.233340327828183E-04
  0.112343328682423E+00 -0.560523029461074E+00  0.829360333902779E-04
  0.112343328682423E+00 -0.449536557024029E+00  0.225605765657614E-03
  0.112343328682423E+00 -0.337641464801303E+00  0.495095733304881E-03
  0.112343328682423E+00 -0.224951994744527E+00  0.871903715099790E-03
  0.112343328682423E+00 -0.112343328682423E+00  0.122415054406488E-02
  0.112343328682423E+00  0.414186545644071E-17  0.137035258850805E-02
  0.112343328682423E+00  0.112343328682423E+00  0.122415054406488E-02
  0.112343328682423E+00  0.224951994744527E+00  0.871903715099791E-03
  0.112343328682423E+00  0.337641464801303E+00  0.495095733304881E-03
  0.112343328682423E+00  0.449536557024029E+00  0.225605765657614E-03
  0.112343328682423E+00  0.560523029461074E+00  0.829360333902785E-04
  0.112343328682423E+00  0.675337414025638E+00  0.233340327828185E-04
  0.112343328682423E+00  0.798443291855323E+00  0.460664710615387E-05
  0.112343328682423E+00  0.904141431802467E+00  0.888495922133612E-06
  0.112343328682423E+00  0.975060457533844E+00  0.168274280102688E-06
  0.112343328682423E+00  0.100000000000000E+01  0.000000000000000E+00
  0.224951994744527E+00 -0.100000000000000E+01  0.000000000000000E+00
  0.224951994744527E+00 -0.975060457533844E+00  0.773922129755428E-06
  0.224951994744527E+00 -0.904141431802467E+00  0.408634436627596E-05
  0.224951994744527E+00 -0.798443291855323E+00  0.211867561649782E-04
  0.224951994744527E+00 -0.675337414025638E+00  0.107317198721410E-03
  0.224951994744527E+00 -0.560523029461074E+00  0.381436970477589E-03
  0.224951994744527E+00 -0.449536557024029E+00  0.103759941504085E-02
  0.224951994744527E+00 -0.337641464801303E+00  0.227702976240331E-02
  0.224951994744527E+00 -0.224951994744527E+00  0.401003396846791E-02
  0.224951994744527E+00 -0.112343328682423E+00  0.563007724067444E-02
  0.224951994744527E+00  0.414186545644071E-17  0.630248539010915E-02
  0.224951994744527E+00  0.112343328682423E+00  0.563007724067445E-02
  0.224951994744527E+00  0.224951994744527E+00  0.401003396846792E-02
  0.224951994744527E+00  0.337641464801303E+00  0.227702976240331E-02
  0.224951994744527E+00  0.449536557024029E+00  0.103759941504085E-02
  0.224951994744527E+00  0.560523029461074E+00  0.381436970477589E-03
  0.224951994744527E+00  0.675337414025638E+00  0.107317198721410E-03
  0.224951994744527E+00  0.798443291855323E+00  0.211867561649783E-04
  0.224951994744527E+00  0.904141431802467E+00  0.408634436627605E-05
  0.224951994744527E+00  0.975060457533844E+00  0.773922129755441E-06
  0.224951994744527E+00  0.100000000000000E+01  0.000000000000000E+00
  0.337641464801303E+00 -0.100000000000000E+01  0.000000000000000E+00
  0.337641464801303E+00 -0.975060457533844E+00  0.263284931740572E-05
  0.337641464801303E+00 -0.904141431802467E+00  0.139015652380847E-04
  0.337641464801303E+00 -0.798443291855323E+00  0.720764200573408E-04
  0.337641464801303E+00 -0.675337414025638E+00  0.365088427624753E-03
  0.337641464801303E+00 -0.560523029461074E+00  0.129763193074932E-02
  0.337641464801303E+00 -0.449536557024029E+00  0.352986793701867E-02
  0.337641464801303E+00 -0.337641464801303E+00  0.774635589796548E-02
  0.337641464801303E+00 -0.224951994744527E+00  0.136419605882718E-01
  0.337641464801303E+00 -0.112343328682423E+00  0.191532771094041E-01
  0.337641464801303E+00  0.414186545644071E-17  0.214407802928416E-01
  0.337641464801303E+00  0.112343328682423E+00  0.191532771094041E-01
  0.337641464801303E+00  0.224951994744527E+00  0.136419605882718E-01
  0.337641464801303E+00  0.337641464801303E+00  0.774635589796549E-02
  0.337641464801303E+00  0.449536557024029E+00  0.352986793701867E-02
  0.337641464801303E+00  0.560523029461074E+00  0.129763193074932E-02
  0.337641464801303E+00  0.675337414025638E+00  0.365088427624754E-03
  0.337641464801303E+00  0.798443291855323E+00  0.720764200573414E-04
  0.337641464801303E+00  0.904141431802467E+00  0.139015652380850E-04
  0.337641464801303E+00  0.975060457533844E+00  0.263284931740579E-05
  0.337641464801303E+00  0.100000000000000E+01  0.000000000000000E+00
  0.449536557024029E+00 -0.100000000000000E+01  0.000000000000000E+00
  0.449536557024029E+00 -0.975060457533844E+00  0.711512597900661E-05
  0.449536557024029E+00 -0.904141431802467E+00  0.375681917388326E-04
  0.449536557024029E+00 -0.798443291855323E+00  0.194782437956216E-03
  0.449536557024029E+00 -0.675337414025638E+00  0.986630772418648E-03
  0.449536557024029E+00 -0.560523029461074E+00  0.350677670677140E-02
  0.449536557024029E+00 -0.449536557024029E+00  0.953926792590571E-02
  0.449536557024029E+00 -0.337641464801303E+00  0.209340875240729E-01
  0.449536557024029E+00 -0.224951994744527E+00  0.368666248562106E-01
  0.449536557024029E+00 -0.112343328682423E+00  0.517606452009503E-01
  0.449536557024029E+00  0.414186545644071E-17  0.579424928262583E-01
  0.449536557024029E+00  0.112343328682423E+00  0.517606452009503E-01
  0.449536557024029E+00  0.224951994744527E+00  0.368666248562106E-01
  0.449536557024029E+00  0.337641464801303E+00  0.209340875240729E-01
  0.449536557024029E+00  0.449536557024029E+00  0.953926792590571E-02
  0.449536557024029E+00  0.560523029461074E+00  0.350677670677141E-02
  0.449536557024029E+00  0.675337414025638E+00  0.986630772418650E-03
  0.449536557024029E+00  0.798443291855323E+00  0.194782437956218E-03
  0.449536557024029E+00  0.904141431802467E+00  0.375681917388334E-04
  0.449536557024029E+00  0.975060457533844E+00  0.711512597900674E-05
  0.449536557024029E+00  0.100000000000000E+01  0.000000000000000E+00
  0.560523029461074E+00 -0.100000000000000E+01  0.000000000000000E+00
  0.560523029461074E+00 -0.975060457533844E+00  0.156028207806124E-04
  0.560523029461074E+00 -0.904141431802467E+00  0.823836098642064E-04
  0.560523029461074E+00 -0.798443291855323E+00  0.427140078790494E-03
  0.560523029461074E+00 -0.675337414025638E+00  0.216359108310285E-02
  0.560523029461074E+00 -0.560523029461074E+00  0.769004071754659E-02
  0.560523029461074E+00 -0.449536557024029E+00  0.209187424501641E-01
  0.560523029461074E+00 -0.337641464801303E+00  0.459065400709277E-01
  0.560523029461074E+00 -0.224951994744527E+00  0.808451378198237E-01
  0.560523029461074E+00 -0.112343328682423E+00  0.113506362755617E+00
  0.560523029461074E+00  0.414186545644071E-17  0.127062589423552E+00
  0.560523029461074E+00  0.112343328682423E+00  0.113506362755617E+00
  0.560523029461074E+00  0.224951994744527E+00  0.808451378198238E-01
  0.560523029461074E+00  0.337641464801303E+00  0.459065400709277E-01
  0.560523029461074E+00  0.449536557024029E+00  0.209187424501641E-01
  0.560523029461074E+00  0.560523029461074E+00  0.769004071754660E-02
  0.560523029461074E+00  0.675337414025638E+00  0.216359108310285E-02
  0.560523029461074E+00  0.798443291855323E+00  0.427140078790498E-03
  0.560523029461074E+00  0.904141431802467E+00  0.823836098642082E-04
  0.560523029461074E+00  0.975060457533844E+00  0.156028207806127E-04
  0.560523029461074E+00  0.100000000000000E+01  0.000000000000000E+00
  0.675337414025638E+00 -0.100000000000000E+01  0.000000000000000E+00
  0.675337414025638E+00 -0.975060457533844E+00  0.280059347681886E-04
  0.675337414025638E+00 -0.904141431802467E+00  0.147872621008207E-03
  0.675337414025638E+00 -0.798443291855323E+00  0.766685547117508E-03
  0.675337414025638E+00 -0.675337414025638E+00  0.388348950626432E-02
  0.675337414025638E+00 -0.560523029461074E+00  0.138030668861017E-01
  0.675337414025638E+00 -0.449536557024029E+00  0.375476296997818E-01
  0.675337414025638E+00 -0.337641464801303E+00  0.823989191293789E-01
  0.675337414025638E+00 -0.224951994744527E+00  0.145111175072539E+00
  0.675337414025638E+00 -0.112343328682423E+00  0.203735711529871E+00
  0.675337414025638E+00  0.414186545644071E-17  0.228068157911049E+00
  0.675337414025638E+00  0.112343328682423E+00  0.203735711529871E+00
  0.675337414025638E+00  0.224951994744527E+00  0.145111175072539E+00
  0.675337414025638E+00  0.337641464801303E+00  0.823989191293789E-01
  0.675337414025638E+00  0.449536557024029E+00  0.375476296997818E-01
  0.675337414025638E+00  0.560523029461074E+00  0.138030668861017E-01
  0.675337414025638E+00  0.675337414025638E+00  0.388348950626433E-02
  0.675337414025638E+00  0.798443291855323E+00  0.766685547117515E-03
  0.675337414025638E+00  0.904141431802467E+00  0.147872621008210E-03
  0.675337414025638E+00  0.975060457533844E+00  0.280059347681892E-04
  0.675337414025638E+00  0.100000000000000E+01  0.000000000000000E+00
  0.798443291855323E+00 -0.100000000000000E+01  0.000000000000000E+00
  0.798443291855323E+00 -0.975060457533844E+00  0.400927323867937E-04
  0.798443291855323E+00 -0.904141431802467E+00  0.211691467198323E-03
  0.798443291855323E+00 -0.798443291855323E+00  0.109757159411030E-02
  0.798443291855323E+00 -0.675337414025638E+00  0.555952539463774E-02
  0.798443291855323E+00 -0.560523029461074E+00  0.197601926741815E-01
  0.798443291855323E+00 -0.449536557024029E+00  0.537524307871434E-01
  0.798443291855323E+00 -0.337641464801303E+00  0.117960633823932E+00
  0.798443291855323E+00 -0.224951994744527E+00  0.207738236966113E+00
  0.798443291855323E+00 -0.112343328682423E+00  0.291663943186384E+00
  0.798443291855323E+00  0.414186545644071E-17  0.326497783589217E+00
  0.798443291855323E+00  0.112343328682423E+00  0.291663943186385E+00
  0.798443291855323E+00  0.224951994744527E+00  0.207738236966113E+00
  0.798443291855323E+00  0.337641464801303E+00  0.117960633823932E+00
  0.798443291855323E+00  0.449536557024029E+00  0.537524307871435E-01
  0.798443291855323E+00  0.560523029461074E+00  0.197601926741816E-01
  0.798443291855323E+00  0.675337414025638E+00  0.555952539463775E-02
  0.798443291855323E+00  0.798443291855323E+00  0.109757159411031E-02
  0.798443291855323E+00  0.904141431802467E+00  0.211691467198328E-03
  0.798443291855323E+00  0.975060457533844E+00  0.400927323867946E-04
  0.798443291855323E+00  0.100000000000000E+01  0.000000000000000E+00
  0.904141431802467E+00 -0.100000000000000E+01  0.000000000000000E+00
  0.904141431802467E+00 -0.975060457533844E+00  0.438513776715643E-04
  0.904141431802467E+00 -0.904141431802467E+00  0.231537286800267E-03
  0.904141431802467E+00 -0.798443291855323E+00  0.120046760650770E-02
  0.904141431802467E+00 -0.675337414025638E+00  0.608072419114056E-02
  0.904141431802467E+00 -0.560523029461074E+00  0.216126868923390E-01
  0.904141431802467E+00 -0.449536557024029E+00  0.587916563147988E-01
  0.904141431802467E+00 -0.337641464801303E+00  0.129019300923346E+00
  0.904141431802467E+00 -0.224951994744527E+00  0.227213446058363E+00
  0.904141431802467E+00 -0.112343328682423E+00  0.319007086000105E+00
  0.904141431802467E+00  0.414186545644071E-17  0.357106556923031E+00
  0.904141431802467E+00  0.112343328682423E+00  0.319007086000106E+00
  0.904141431802467E+00  0.224951994744527E+00  0.227213446058363E+00
  0.904141431802467E+00  0.337641464801303E+00  0.129019300923346E+00
  0.904141431802467E+00  0.449536557024029E+00  0.587916563147989E-01
  0.904141431802467E+00  0.560523029461074E+00  0.216126868923391E-01
  0.904141431802467E+00  0.675337414025638E+00  0.608072419114058E-02
  0.904141431802467E+00  0.798443291855323E+00  0.120046760650771E-02
  0.904141431802467E+00  0.904141431802467E+00  0.231537286800272E-03
  0.904141431802467E+00  0.975060457533844E+00  0.438513776715653E-04
  0.904141431802467E+00  0.100000000000000E+01  0.000000000000000E+00
  0.975060457533844E+00 -0.100000000000000E+01  0.000000000000000E+00
  0.975060457533844E+00 -0.975060457533844E+00  0.416509627351506E-04
  0.975060457533844E+00 -0.904141431802467E+00  0.219918994923614E-03
  0.975060457533844E+00 -0.798443291855323E+00  0.114022943374635E-02
  0.975060457533844E+00 -0.675337414025638E+00  0.577559999363496E-02
  0.975060457533844E+00 -0.560523029461074E+00  0.205281855171685E-01
  0.975060457533844E+00 -0.449536557024029E+00  0.558415542555275E-01
  0.975060457533844E+00 -0.337641464801303E+00  0.122545251219801E+00
  0.975060457533844E+00 -0.224951994744527E+00  0.215812119809191E+00
  0.975060457533844E+00 -0.112343328682423E+00  0.302999653671982E+00
  0.975060457533844E+00  0.414186545644071E-17  0.339187334141102E+00
  0.975060457533844E+00  0.112343328682423E+00  0.302999653671983E+00
  0.975060457533844E+00  0.224951994744527E+00  0.215812119809191E+00
  0.975060457533844E+00  0.337641464801303E+00  0.122545251219802E+00
  0.975060457533844E+00  0.449536557024029E+00  0.558415542555276E-01
  0.975060457533844E+00  0.560523029461074E+00  0.205281855171685E-01
  0.975060457533844E+00  0.675337414025638E+00  0.577559999363498E-02
  0.975060457533844E+00  0.798443291855323E+00  0.114022943374636E-02
  0.975060457533844E+00  0.904141431802467E+00  0.219918994923620E-03
  0.975060457533844E+00  0.975060457533844E+00  0.416509627351515E-04
  0.975060457533844E+00  0.100000000000000E+01  0.000000000000000E+00
  0.100000000000000E+01 -0.100000000000000E+01  0.000000000000000E+00
  0.100000000000000E+01 -0.975060457533844E+00  0.400441604507153E-04
  0.100000000000000E+01 -0.904141431802467E+00  0.211435005106607E-03
  0.100000000000000E+01 -0.798443291855323E+00  0.109624189676321E-02
  0.100000000000000E+01 -0.675337414025638E+00  0.555279008260833E-02
  0.100000000000000E+01 -0.560523029461074E+00  0.197362533894838E-01
  0.100000000000000E+01 -0.449536557024029E+00  0.536873102359029E-01