 VARIABLES =  $x$  (b)
 ZONE I=         441 ,DATAPACKING=POINT
 -0.100000000000000E+01 -0.100000000000000E+01  0.100000000000000E+01
 -0.100000000000000E+01 -0.955162973124140E+00  0.100000000000000E+01
 -0.100000000000000E+01 -0.848039647510822E+00  0.100000000000000E+01
 -0.100000000000000E+01 -0.741262543272473E+00  0.100000000000000E+01
 -0.100000000000000E+01 -0.635605065171759E+00  0.100000000000000E+01
 -0.100000000000000E+01 -0.529610856542781E+00  0.100000000000000E+01
 -0.100000000000000E+01 -0.423704436434061E+00  0.100000000000000E+01
 -0.100000000000000E+01 -0.317774315082929E+00  0.100000000000000E+01
 -0.100000000000000E+01 -0.211850529508475E+00  0.100000000000000E+01
 -0.100000000000000E+01 -0.105925053478478E+00  0.100000000000000E+01
 -0.100000000000000E+01 -0.790519978293986E-17  0.100000000000000E+01
 -0.100000000000000E+01  0.105925053478478E+00  0.100000000000000E+01
 -0.100000000000000E+01  0.211850529508475E+00  0.100000000000000E+01
 -0.100000000000000E+01  0.317774315082929E+00  0.100000000000000E+01
 -0.100000000000000E+01  0.423704436434061E+00  0.100000000000000E+01
 -0.100000000000000E+01  0.529610856542781E+00  0.100000000000000E+01
 -0.100000000000000E+01  0.635605065171759E+00  0.100000000000000E+01
 -0.100000000000000E+01  0.741262543272473E+00  0.100000000000000E+01
 -0.100000000000000E+01  0.848039647510822E+00  0.100000000000000E+01
 -0.100000000000000E+01  0.955162973124140E+00  0.100000000000000E+01
 -0.100000000000000E+01  0.100000000000000E+01  0.100000000000000E+01
 -0.955162973124140E+00 -0.100000000000000E+01  0.000000000000000E+00
 -0.955162973124140E+00 -0.955162973124140E+00  0.498710075315710E+00
 -0.955162973124140E+00 -0.848039647510822E+00  0.815735595679142E+00
 -0.955162973124140E+00 -0.741262543272473E+00  0.885016704903905E+00
 -0.955162973124140E+00 -0.635605065171759E+00  0.912134641245601E+00
 -0.955162973124140E+00 -0.529610856542781E+00  0.926407000284794E+00
 -0.955162973124140E+00 -0.423704436434061E+00  0.934610183401293E+00
 -0.955162973124140E+00 -0.317774315082929E+00  0.939501327593765E+00
 -0.955162973124140E+00 -0.211850529508475E+00  0.942379925298190E+00
 -0.955162973124140E+00 -0.105925053478478E+00  0.943900564748818E+00
 -0.955162973124140E+00 -0.790519978293986E-17  0.944376287132012E+00
 -0.955162973124140E+00  0.105925053478478E+00  0.943900564748818E+00
 -0.955162973124140E+00  0.211850529508475E+00  0.942379925298190E+00
 -0.955162973124140E+00  0.317774315082929E+00  0.939501327593765E+00
 -0.955162973124140E+00  0.423704436434061E+00  0.934610183401293E+00
 -0.955162973124140E+00  0.529610856542781E+00  0.926407000284794E+00
 -0.955162973124140E+00  0.635605065171759E+00  0.912134641245601E+00
 -0.955162973124140E+00  0.741262543272473E+00  0.885016704903905E+00
 -0.955162973124140E+00  0.848039647510822E+00  0.815735595679142E+00
 -0.955162973124140E+00  0.955162973124140E+00  0.498710075315710E+00
 -0.955162973124140E+00  0.100000000000000E+01  0.000000000000000E+00
 -0.848039647510822E+00 -0.100000000000000E+01  0.000000000000000E+00
 -0.848039647510822E+00 -0.955162973124140E+00  0.175579129954718E+00
 -0.848039647510822E+00 -0.848039647510822E+00  0.485380418998943E+00
 -0.848039647510822E+00 -0.741262543272473E+00  0.637543239560361E+00
 -0.848039647510822E+00 -0.635605065171759E+00  0.714170538840372E+00
 -0.848039647510822E+00 -0.529610856542781E+00  0.756994715318700E+00
 -0.848039647510822E+00 -0.423704436434061E+00  0.782328876844138E+00
 -0.848039647510822E+00 -0.317774315082929E+00  0.797718883602027E+00
 -0.848039647510822E+00 -0.211850529508475E+00  0.806882503702319E+00
 -0.848039647510822E+00 -0.105925053478478E+00  0.811755880001566E+00
 -0.848039647510822E+00 -0.790519978293986E-17  0.813285187705489E+00
 -0.848039647510822E+00  0.105925053478478E+00  0.811755880001566E+00
 -0.848039647510822E+00  0.211850529508475E+00  0.806882503702319E+00
 -0.848039647510822E+00  0.317774315082929E+00  0.797718883602027E+00
 -0.848039647510822E+00  0.423704436434061E+00  0.782328876844138E+00
 -0.848039647510822E+00  0.529610856542781E+00  0.756994715318700E+00
 -0.848039647510822E+00  0.635605065171759E+00  0.714170538840371E+00
 -0.848039647510822E+00  0.741262543272473E+00  0.637543239560360E+00
 -0.848039647510822E+00  0.848039647510822E+00  0.485380418998943E+00
 -0.848039647510822E+00  0.955162973124140E+00  0.175579129954718E+00
 -0.848039647510822E+00  0.100000000000000E+01  0.000000000000000E+00
 -0.741262543272473E+00 -0.100000000000000E+01  0.000000000000000E+00
 -0.741262543272473E+00 -0.955162973124140E+00  0.100396215891194E+00
 -0.741262543272473E+00 -0.848039647510822E+00  0.313350940970851E+00
 -0.741262543272473E+00 -0.741262543272473E+00  0.458767918317789E+00
 -0.741262543272473E+00 -0.635605065171759E+00  0.549398169310771E+00
 -0.741262543272473E+00 -0.529610856542781E+00  0.606280475617516E+00
 -0.741262543272473E+00 -0.423704436434061E+00  0.642139586401300E+00
 -0.741262543272473E+00 -0.317774315082929E+00  0.664740014949313E+00
 -0.741262543272473E+00 -0.211850529508475E+00  0.678496993729859E+00
 -0.741262543272473E+00 -0.105925053478478E+00  0.685906772873865E+00
 -0.741262543272473E+00 -0.790519978293986E-17  0.688245684467634E+00
 -0.741262543272473E+00  0.105925053478478E+00  0.685906772873865E+00
 -0.741262543272473E+00  0.211850529508475E+00  0.678496993729859E+00
 -0.741262543272473E+00  0.317774315082929E+00  0.664740014949312E+00
 -0.741262543272473E+00  0.423704436434061E+00  0.642139586401300E+00
 -0.741262543272473E+00  0.529610856542781E+00  0.606280475617515E+00
 -0.741262543272473E+00  0.635605065171759E+00  0.549398169310771E+00
 -0.741262543272473E+00  0.741262543272473E+00  0.458767918317788E+00
 -0.741262543272473E+00  0.848039647510822E+00  0.313350940970851E+00
 -0.741262543272473E+00  0.955162973124140E+00  0.100396215891195E+00
 -0.741262543272473E+00  0.100000000000000E+01  0.000000000000000E+00
 -0.635605065171759E+00 -0.100000000000000E+01  0.000000000000000E+00
 -0.635605065171759E+00 -0.955162973124140E+00  0.677293339465442E-01
 -0.635605065171759E+00 -0.848039647510822E+00  0.218047857479683E+00
 -0.635605065171759E+00 -0.741262543272473E+00  0.336789842601023E+00
 -0.635605065171759E+00 -0.635605065171759E+00  0.421477576399795E+00
 -0.635605065171759E+00 -0.529610856542781E+00  0.480058843134171E+00
 -0.635605065171759E+00 -0.423704436434061E+00  0.519464282985534E+00
 -0.635605065171759E+00 -0.317774315082929E+00  0.545368086451589E+00
 -0.635605065171759E+00 -0.211850529508475E+00  0.561564592402849E+00
 -0.635605065171759E+00 -0.105925053478478E+00  0.570428934780382E+00
 -0.635605065171759E+00 -0.790519978293986E-17  0.573248036947437E+00
 -0.635605065171759E+00  0.105925053478478E+00  0.570428934780383E+00
 -0.635605065171759E+00  0.211850529508475E+00  0.561564592402850E+00
 -0.635605065171759E+00  0.317774315082929E+00  0.545368086451589E+00
 -0.635605065171759E+00  0.423704436434061E+00  0.519464282985534E+00
 -0.635605065171759E+00  0.529610856542781E+00  0.480058843134171E+00
 -0.635605065171759E+00  0.635605065171759E+00  0.421477576399795E+00
 -0.635605065171759E+00  0.741262543272473E+00  0.336789842601022E+00
 -0.635605065171759E+00  0.848039647510822E+00  0.218047857479683E+00
 -0.635605065171759E+00  0.955162973124140E+00  0.677293339465443E-01
 -0.635605065171759E+00  0.100000000000000E+01  0.000000000000000E+00
 -0.529610856542781E+00 -0.100000000000000E+01  0.000000000000000E+00
 -0.529610856542781E+00 -0.955162973124140E+00  0.482664182349563E-01
 -0.529610856542781E+00 -0.848039647510822E+00  0.157758916480369E+00
 -0.529610856542781E+00 -0.741262543272473E+00  0.250609246569098E+00
 -0.529610856542781E+00 -0.635605065171759E+00  0.322525082704531E+00
 -0.529610856542781E+00 -0.529610856542781E+00  0.375966596702605E+00
 -0.529610856542781E+00 -0.423704436434061E+00  0.413956045107553E+00
 -0.529610856542781E+00 -0.317774315082929E+00  0.439942884880500E+00
 -0.529610856542781E+00 -0.211850529508475E+00  0.456638700197590E+00
 -0.529610856542781E+00 -0.105925053478478E+00  0.465931910539350E+00
 -0.529610856542781E+00 -0.790519978293986E-17  0.468911437678657E+00
 -0.529610856542781E+00  0.105925053478478E+00  0.465931910539351E+00
 -0.529610856542781E+00  0.211850529508475E+00  0.456638700197590E+00
 -0.529610856542781E+00  0.317774315082929E+00  0.439942884880500E+00
 -0.529610856542781E+00  0.423704436434061E+00  0.413956045107552E+00
 -0.529610856542781E+00  0.529610856542781E+00  0.375966596702604E+00
 -0.529610856542781E+00  0.635605065171759E+00  0.322525082704530E+00
 -0.529610856542781E+00  0.741262543272473E+00  0.250609246569098E+00
 -0.529610856542781E+00  0.848039647510822E+00  0.157758916480369E+00
 -0.529610856542781E+00  0.955162973124140E+00  0.482664182349564E-01
 -0.529610856542781E+00  0.100000000000000E+01  0.000000000000000E+00
 -0.423704436434061E+00 -0.100000000000000E+01  0.000000000000000E+00
 -0.423704436434061E+00 -0.955162973124140E+00  0.353061068611805E-01
 -0.423704436434061E+00 -0.848039647510822E+00  0.116425642984202E+00
 -0.423704436434061E+00 -0.741262543272473E+00  0.187935635300311E+00
 -0.423704436434061E+00 -0.635605065171759E+00  0.246221886488595E+00
 -0.423704436434061E+00 -0.529610856542781E+00  0.291769150503270E+00
 -0.423704436434061E+00 -0.423704436434061E+00  0.325574895176384E+00
 -0.423704436434061E+00 -0.317774315082929E+00  0.349495597721399E+00
 -0.423704436434061E+00 -0.211850529508475E+00  0.365245865713812E+00
 -0.423704436434061E+00 -0.105925053478478E+00  0.374153146101434E+00
 -0.423704436434061E+00 -0.790519978293986E-17  0.377031283795103E+00
 -0.423704436434061E+00  0.105925053478478E+00  0.374153146101434E+00
 -0.423704436434061E+00  0.211850529508475E+00  0.365245865713812E+00
 -0.423704436434061E+00  0.317774315082929E+00  0.349495597721399E+00
 -0.423704436434061E+00  0.423704436434061E+00  0.325574895176383E+00
 -0.423704436434061E+00  0.529610856542781E+00  0.291769150503270E+00
 -0.423704436434061E+00  0.635605065171759E+00  0.246221886488595E+00
 -0.423704436434061E+00  0.741262543272473E+00  0.187935635300311E+00
 -0.423704436434061E+00  0.848039647510822E+00  0.116425642984202E+00
 -0.423704436434061E+00  0.955162973124140E+00  0.353061068611805E-01
 -0.423704436434061E+00  0.100000000000000E+01  0.000000000000000E+00
 -0.317774315082929E+00 -0.100000000000000E+01  0.000000000000000E+00
 -0.317774315082929E+00 -0.955162973124140E+00  0.261006017335687E-01
 -0.317774315082929E+00 -0.848039647510822E+00  0.865367793235494E-01
 -0.317774315082929E+00 -0.741262543272473E+00  0.141072863924864E+00
 -0.317774315082929E+00 -0.635605065171759E+00  0.187006995093072E+00
 -0.317774315082929E+00 -0.529610856542781E+00  0.224185938681049E+00
 -0.317774315082929E+00 -0.423704436434061E+00  0.252695166178353E+00
 -0.317774315082929E+00 -0.317774315082929E+00  0.273425987538648E+00
 -0.317774315082929E+00 -0.211850529508475E+00  0.287362878487414E+00
 -0.317774315082929E+00 -0.105925053478478E+00  0.295355255331043E+00
 -0.317774315082929E+00 -0.790519978293986E-17  0.297955846491952E+00
 -0.317774315082929E+00  0.105925053478478E+00  0.295355255331043E+00
 -0.317774315082929E+00  0.211850529508475E+00  0.287362878487414E+00
 -0.317774315082929E+00  0.317774315082929E+00  0.273425987538648E+00
 -0.317774315082929E+00  0.423704436434061E+00  0.252695166178353E+00
 -0.317774315082929E+00  0.529610856542781E+00  0.224185938681048E+00
 -0.317774315082929E+00  0.635605065171759E+00  0.187006995093071E+00
 -0.317774315082929E+00  0.741262543272473E+00  0.141072863924864E+00
 -0.317774315082929E+00  0.848039647510822E+00  0.865367793235493E-01
 -0.317774315082929E+00  0.955162973124140E+00  0.261006017335687E-01
 -0.317774315082929E+00  0.100000000000000E+01  0.000000000000000E+00
 -0.211850529508475E+00 -0.100000000000000E+01  0.000000000000000E+00
 -0.211850529508475E+00 -0.955162973124140E+00  0.193230789591739E-01
 -0.211850529508475E+00 -0.848039647510822E+00  0.642878322322553E-01
 -0.211850529508475E+00 -0.741262543272473E+00  0.105477056593105E+00
 -0.211850529508475E+00 -0.635605065171759E+00  0.140939337896616E+00
 -0.211850529508475E+00 -0.529610856542781E+00  0.170363666318992E+00
 -0.211850529508475E+00 -0.423704436434061E+00  0.193482240936793E+00
 -0.211850529508475E+00 -0.317774315082929E+00  0.210656435935394E+00
 -0.211850529508475E+00 -0.211850529508475E+00  0.222399688613229E+00
 -0.211850529508475E+00 -0.105925053478478E+00  0.229213187227931E+00
 -0.211850529508475E+00 -0.790519978293986E-17  0.231443404529873E+00
 -0.211850529508475E+00  0.105925053478478E+00  0.229213187227931E+00
 -0.211850529508475E+00  0.211850529508475E+00  0.222399688613229E+00
 -0.211850529508475E+00  0.317774315082929E+00  0.210656435935394E+00
 -0.211850529508475E+00  0.423704436434061E+00  0.193482240936792E+00
 -0.211850529508475E+00  0.529610856542781E+00  0.170363666318992E+00
 -0.211850529508475E+00  0.635605065171759E+00  0.140939337896615E+00
 -0.211850529508475E+00  0.741262543272473E+00  0.105477056593105E+00
 -0.211850529508475E+00  0.848039647510822E+00  0.642878322322552E-01
 -0.211850529508475E+00  0.955162973124140E+00  0.193230789591739E-01
 -0.211850529508475E+00  0.100000000000000E+01  0.000000000000000E+00
 -0.105925053478478E+00 -0.100000000000000E+01  0.000000000000000E+00
 -0.105925053478478E+00 -0.955162973124140E+00  0.142410457657917E-01
 -0.105925053478478E+00 -0.848039647510822E+00  0.474896587031052E-01
 -0.105925053478478E+00 -0.741262543272473E+00  0.782566631391930E-01
 -0.105925053478478E+00 -0.635605065171759E+00  0.105151249547569E+00
 -0.105925053478478E+00 -0.529610856542781E+00  0.127867601382438E+00
 -0.105925053478478E+00 -0.423704436434061E+00  0.146042608333192E+00
 -0.105925053478478E+00 -0.317774315082929E+00  0.159769393837742E+00
 -0.105925053478478E+00 -0.211850529508475E+00  0.169283002501079E+00
 -0.105925053478478E+00 -0.105925053478478E+00  0.174855569131261E+00
 -0.105925053478478E+00 -0.790519978293986E-17  0.176688561525306E+00
 -0.105925053478478E+00  0.105925053478478E+00  0.174855569131261E+00
 -0.105925053478478E+00  0.211850529508475E+00  0.169283002501079E+00
 -0.105925053478478E+00  0.317774315082929E+00  0.159769393837741E+00
 -0.105925053478478E+00  0.423704436434061E+00  0.146042608333192E+00
 -0.105925053478478E+00  0.529610856542781E+00  0.127867601382437E+00
 -0.105925053478478E+00  0.635605065171759E+00  0.105151249547568E+00
 -0.105925053478478E+00  0.741262543272473E+00  0.782566631391928E-01
 -0.105925053478478E+00  0.848039647510822E+00  0.474896587031052E-01
 -0.105925053478478E+00  0.955162973124140E+00  0.142410457657917E-01
 -0.105925053478478E+00  0.100000000000000E+01  0.000000000000000E+00
 -0.790519978293986E-17 -0.100000000000000E+01  0.000000000000000E+00
 -0.790519978293986E-17 -0.955162973124140E+00  0.104066761835658E-01
 -0.790519978293986E-17 -0.848039647510822E+00  0.347590156781721E-01
 -0.790519978293986E-17 -0.741262543272473E+00  0.574540424341430E-01
 -0.790519978293986E-17 -0.635605065171759E+00  0.775083509848310E-01
 -0.790519978293986E-17 -0.529610856542781E+00  0.946686764079749E-01
 -0.790519978293986E-17 -0.423704436434061E+00  0.108586514875453E+00
 -0.790519978293986E-17 -0.317774315082929E+00  0.119232629096850E+00
 -0.790519978293986E-17 -0.211850529508475E+00  0.126689922696637E+00
 -0.790519978293986E-17 -0.105925053478478E+00  0.131091340653593E+00
 -0.790519978293986E-17 -0.790519978293986E-17  0.132544847850901E+00
 -0.790519978293986E-17  0.105925053478478E+00  0.131091340653593E+00
 -0.790519978293986E-17  0.211850529508475E+00  0.126689922696637E+00
 -0.790519978293986E-17  0.317774315082929E+00  0.119232629096850E+00
 -0.790519978293986E-17  0.423704436434061E+00  0.108586514875453E+00
 -0.790519978293986E-17  0.529610856542781E+00  0.946686764079747E-01
 -0.790519978293986E-17  0.635605065171759E+00  0.775083509848308E-01
 -0.790519978293986E-17  0.741262543272473E+00  0.574540424341428E-01
 -0.790519978293986E-17  0.848039647510822E+00  0.347590156781720E-01
 -0.790519978293986E-17  0.955162973124140E+00  0.104066761835658E-01
 -0.790519978293986E-17  0.100000000000000E+01  0.000000000000000E+00
  0.105925053478478E+00 -0.100000000000000E+01  0.000000000000000E+00
  0.105925053478478E+00 -0.955162973124140E+00  0.751874590392605E-02
  0.105925053478478E+00 -0.848039647510822E+00  0.251420899143584E-01
  0.105925053478478E+00 -0.741262543272473E+00  0.416501340736507E-01
  0.105925053478478E+00 -0.635605065171759E+00  0.563528630874121E-01
  0.105925053478478E+00 -0.529610856542781E+00  0.690557337801850E-01
  0.105925053478478E+00 -0.423704436434061E+00  0.794648956053182E-01
  0.105925053478478E+00 -0.317774315082929E+00  0.875055176470972E-01
  0.105925053478478E+00 -0.211850529508475E+00  0.931847509685996E-01
  0.105925053478478E+00 -0.105925053478478E+00  0.965569684355382E-01
  0.105925053478478E+00 -0.790519978293986E-17  0.976741192192624E-01
  0.105925053478478E+00  0.105925053478478E+00  0.965569684355383E-01
  0.105925053478478E+00  0.211850529508475E+00  0.931847509685997E-01
  0.105925053478478E+00  0.317774315082929E+00  0.875055176470971E-01
  0.105925053478478E+00  0.423704436434061E+00  0.794648956053181E-01
  0.105925053478478E+00  0.529610856542781E+00  0.690557337801849E-01
  0.105925053478478E+00  0.635605065171759E+00  0.563528630874120E-01
  0.105925053478478E+00  0.741262543272473E+00  0.416501340736506E-01
  0.105925053478478E+00  0.848039647510822E+00  0.251420899143584E-01
  0.105925053478478E+00  0.955162973124140E+00  0.751874590392604E-02
  0.105925053478478E+00  0.100000000000000E+01  0.000000000000000E+00
  0.211850529508475E+00 -0.100000000000000E+01  0.000000000000000E+00
  0.211850529508475E+00 -0.955162973124140E+00  0.535895197633016E-02
  0.211850529508475E+00 -0.848039647510822E+00  0.179350952644537E-01
  0.211850529508475E+00 -0.741262543272473E+00  0.297597902325346E-01
  0.211850529508475E+00 -0.635605065171759E+00  0.403533041535519E-01
  0.211850529508475E+00 -0.529610856542781E+00  0.495725293866336E-01
  0.211850529508475E+00 -0.423704436434061E+00  0.571865762063979E-01
  0.211850529508475E+00 -0.317774315082929E+00  0.631127845372142E-01
  0.211850529508475E+00 -0.211850529508475E+00  0.673258515244528E-01
  0.211850529508475E+00 -0.105925053478478E+00  0.698393895596312E-01
  0.211850529508475E+00 -0.790519978293986E-17  0.706741635719858E-01
  0.211850529508475E+00  0.105925053478478E+00  0.698393895596312E-01
  0.211850529508475E+00  0.211850529508475E+00  0.673258515244528E-01
  0.211850529508475E+00  0.317774315082929E+00  0.631127845372142E-01
  0.211850529508475E+00  0.423704436434061E+00  0.571865762063979E-01
  0.211850529508475E+00  0.529610856542781E+00  0.495725293866335E-01
  0.211850529508475E+00  0.635605065171759E+00  0.403533041535518E-01
  0.211850529508475E+00  0.741262543272473E+00  0.297597902325345E-01
  0.211850529508475E+00  0.848039647510822E+00  0.179350952644537E-01
  0.211850529508475E+00  0.955162973124140E+00  0.535895197633016E-02
  0.211850529508475E+00  0.100000000000000E+01  0.000000000000000E+00
  0.317774315082929E+00 -0.100000000000000E+01  0.000000000000000E+00
  0.317774315082929E+00 -0.955162973124140E+00  0.376048835632661E-02
  0.317774315082929E+00 -0.848039647510822E+00  0.125934233093927E-01
  0.317774315082929E+00 -0.741262543272473E+00  0.209221028327052E-01
  0.317774315082929E+00 -0.635605065171759E+00  0.284167640515328E-01
  0.317774315082929E+00 -0.529610856542781E+00  0.349753041001375E-01
  0.317774315082929E+00 -0.423704436434061E+00  0.404247049560808E-01
  0.317774315082929E+00 -0.317774315082929E+00  0.446911058553190E-01
  0.317774315082929E+00 -0.211850529508475E+00  0.477396359158402E-01
  0.317774315082929E+00 -0.105925053478478E+00  0.495652129013374E-01
  0.317774315082929E+00 -0.790519978293986E-17  0.501727079518708E-01
  0.317774315082929E+00  0.105925053478478E+00  0.495652129013374E-01
  0.317774315082929E+00  0.211850529508475E+00  0.477396359158402E-01
  0.317774315082929E+00  0.317774315082929E+00  0.446911058553190E-01
  0.317774315082929E+00  0.423704436434061E+00  0.404247049560808E-01
  0.317774315082929E+00  0.529610856542781E+00  0.349753041001374E-01
  0.317774315082929E+00  0.635605065171759E+00  0.284167640515328E-01
  0.317774315082929E+00  0.741262543272473E+00  0.209221028327052E-01
  0.317774315082929E+00  0.848039647510822E+00  0.125934233093926E-01
  0.317774315082929E+00  0.955162973124140E+00  0.376048835632660E-02
  0.317774315082929E+00  0.100000000000000E+01  0.000000000000000E+00
  0.423704436434061E+00 -0.100000000000000E+01  0.000000000000000E+00
  0.423704436434061E+00 -0.955162973124140E+00  0.259152864196204E-02
  0.423704436434061E+00 -0.848039647510822E+00  0.868290849734101E-02
  0.423704436434061E+00 -0.741262543272473E+00  0.144389325702140E-01
  0.423704436434061E+00 -0.635605065171759E+00  0.196361536022117E-01
  0.423704436434061E+00 -0.529610856542781E+00  0.242035912615049E-01
  0.423704436434061E+00 -0.423704436434061E+00  0.280163747615892E-01
  0.423704436434061E+00 -0.317774315082929E+00  0.310151368918221E-01
  0.423704436434061E+00 -0.211850529508475E+00  0.331664283219525E-01
  0.423704436434061E+00 -0.105925053478478E+00  0.344584945832421E-01
  0.423704436434061E+00 -0.790519978293986E-17  0.348891250095779E-01
  0.423704436434061E+00  0.105925053478478E+00  0.344584945832421E-01
  0.423704436434061E+00  0.211850529508475E+00  0.331664283219525E-01
  0.423704436434061E+00  0.317774315082929E+00  0.310151368918221E-01
  0.423704436434061E+00  0.423704436434061E+00  0.280163747615892E-01
  0.423704436434061E+00  0.529610856542781E+00  0.242035912615049E-01
  0.423704436434061E+00  0.635605065171759E+00  0.196361536022117E-01
  0.423704436434061E+00  0.741262543272473E+00  0.144389325702140E-01
  0.423704436434061E+00  0.848039647510822E+00  0.868290849734099E-02
  0.423704436434061E+00  0.955162973124140E+00  0.259152864196203E-02
  0.423704436434061E+00  0.100000000000000E+01  0.000000000000000E+00
  0.529610856542781E+00 -0.100000000000000E+01  0.000000000000000E+00
  0.529610856542781E+00 -0.955162973124140E+00  0.174654943124545E-02
  0.529610856542781E+00 -0.848039647510822E+00  0.585396971243931E-02
  0.529610856542781E+00 -0.741262543272473E+00  0.974166934286665E-02
  0.529610856542781E+00 -0.635605065171759E+00  0.132610982043135E-01
  0.529610856542781E+00 -0.529610856542781E+00  0.163642046129378E-01
  0.529610856542781E+00 -0.423704436434061E+00  0.189639798891663E-01
  0.529610856542781E+00 -0.317774315082929E+00  0.210159923282548E-01
  0.529610856542781E+00 -0.211850529508475E+00  0.224926691746012E-01
  0.529610856542781E+00 -0.105925053478478E+00  0.233816021638570E-01
  0.529610856542781E+00 -0.790519978293986E-17  0.236782353231974E-01
  0.529610856542781E+00  0.105925053478478E+00  0.233816021638570E-01
  0.529610856542781E+00  0.211850529508475E+00  0.224926691746012E-01
  0.529610856542781E+00  0.317774315082929E+00  0.210159923282548E-01
  0.529610856542781E+00  0.423704436434061E+00  0.189639798891663E-01
  0.529610856542781E+00  0.529610856542781E+00  0.163642046129378E-01
  0.529610856542781E+00  0.635605065171759E+00  0.132610982043135E-01
  0.529610856542781E+00  0.741262543272473E+00  0.974166934286662E-02
  0.529610856542781E+00  0.848039647510822E+00  0.585396971243930E-02
  0.529610856542781E+00  0.955162973124140E+00  0.174654943124545E-02
  0.529610856542781E+00  0.100000000000000E+01  0.000000000000000E+00
  0.635605065171759E+00 -0.100000000000000E+01  0.000000000000000E+00
  0.635605065171759E+00 -0.955162973124140E+00  0.113926612987284E-02
  0.635605065171759E+00 -0.848039647510822E+00  0.381958845374624E-02
  0.635605065171759E+00 -0.741262543272473E+00  0.635971412078057E-02
  0.635605065171759E+00 -0.635605065171759E+00  0.866378392853159E-02
  0.635605065171759E+00 -0.529610856542781E+00  0.107003853042210E-01
  0.635605065171759E+00 -0.423704436434061E+00  0.124113701085354E-01
  0.635605065171759E+00 -0.317774315082929E+00  0.137655458761461E-01
  0.635605065171759E+00 -0.211850529508475E+00  0.147423717889240E-01
  0.635605065171759E+00 -0.105925053478478E+00  0.153314452149178E-01
  0.635605065171759E+00 -0.790519978293986E-17  0.155282018290260E-01
  0.635605065171759E+00  0.105925053478478E+00  0.153314452149178E-01
  0.635605065171759E+00  0.211850529508475E+00  0.147423717889240E-01
  0.635605065171759E+00  0.317774315082929E+00  0.137655458761461E-01
  0.635605065171759E+00  0.423704436434061E+00  0.124113701085353E-01
  0.635605065171759E+00  0.529610856542781E+00  0.107003853042209E-01
  0.635605065171759E+00  0.635605065171759E+00  0.866378392853157E-02
  0.635605065171759E+00  0.741262543272473E+00  0.635971412078056E-02
  0.635605065171759E+00  0.848039647510822E+00  0.381958845374623E-02
  0.635605065171759E+00  0.955162973124140E+00  0.113926612987284E-02
  0.635605065171759E+00  0.100000000000000E+01  0.000000000000000E+00
  0.741262543272473E+00 -0.100000000000000E+01  0.000000000000000E+00
  0.741262543272473E+00 -0.955162973124140E+00  0.701860203190790E-03
  0.741262543272473E+00 -0.848039647510822E+00  0.235358974940497E-02
  0.741262543272473E+00 -0.741262543272473E+00  0.392035586474563E-02
  0.741262543272473E+00 -0.635605065171759E+00  0.534357875670146E-02
  0.741262543272473E+00 -0.529610856542781E+00  0.660388750620807E-02
  0.741262543272473E+00 -0.423704436434061E+00  0.766484054525576E-02
  0.741262543272473E+00 -0.317774315082929E+00  0.850622317625849E-02
  0.741262543272473E+00 -0.211850529508475E+00  0.911421344708083E-02
  0.741262543272473E+00 -0.105925053478478E+00  0.948133822988409E-02
  0.741262543272473E+00 -0.790519978293986E-17  0.960404668321686E-02
  0.741262543272473E+00  0.105925053478478E+00  0.948133822988410E-02
  0.741262543272473E+00  0.211850529508475E+00  0.911421344708083E-02
  0.741262543272473E+00  0.317774315082929E+00  0.850622317625849E-02
  0.741262543272473E+00  0.423704436434061E+00  0.766484054525575E-02
  0.741262543272473E+00  0.529610856542781E+00  0.660388750620805E-02
  0.741262543272473E+00  0.635605065171759E+00  0.534357875670145E-02
  0.741262543272473E+00  0.741262543272473E+00  0.392035586474562E-02
  0.741262543272473E+00  0.848039647510822E+00  0.235358974940497E-02
  0.741262543272473E+00  0.955162973124140E+00  0.701860203190789E-03
  0.741262543272473E+00  0.100000000000000E+01  0.000000000000000E+00
  0.848039647510822E+00 -0.100000000000000E+01  0.000000000000000E+00
  0.848039647510822E+00 -0.955162973124140E+00  0.371953737257448E-03
  0.848039647510822E+00 -0.848039647510822E+00  0.124746447507779E-02
  0.848039647510822E+00 -0.741262543272473E+00  0.207844566580798E-02
  0.848039647510822E+00 -0.635605065171759E+00  0.283402261939428E-02
  0.848039647510822E+00 -0.529610856542781E+00  0.350392581811963E-02
  0.848039647510822E+00 -0.423704436434061E+00  0.406862614602562E-02
  0.848039647510822E+00 -0.317774315082929E+00  0.451705707917086E-02
  0.848039647510822E+00 -0.211850529508475E+00  0.484147682047394E-02
  0.848039647510822E+00 -0.105925053478478E+00  0.503754270905095E-02
  0.848039647510822E+00 -0.790519978293986E-17  0.510310650212970E-02
  0.848039647510822E+00  0.105925053478478E+00  0.503754270905095E-02
  0.848039647510822E+00  0.211850529508475E+00  0.484147682047394E-02
  0.848039647510822E+00  0.317774315082929E+00  0.451705707917086E-02
  0.848039647510822E+00  0.423704436434061E+00  0.406862614602561E-02
  0.848039647510822E+00  0.529610856542781E+00  0.350392581811962E-02
  0.848039647510822E+00  0.635605065171759E+00  0.283402261939428E-02
  0.848039647510822E+00  0.741262543272473E+00  0.207844566580798E-02
  0.848039647510822E+00  0.848039647510822E+00  0.124746447507779E-02
  0.848039647510822E+00  0.955162973124140E+00  0.371953737257448E-03
  0.848039647510822E+00  0.100000000000000E+01  0.000000000000000E+00
  0.955162973124140E+00 -0.100000000000000E+01  0.000000000000000E+00
  0.955162973124140E+00 -0.955162973124140E+00  0.104187482035309E-03
  0.955162973124140E+00 -0.848039647510822E+00  0.349448194510087E-03
  0.955162973124140E+00 -0.741262543272473E+00  0.582301820567968E-03
  0.955162973124140E+00 -0.635605065171759E+00  0.794122829575478E-03
  0.955162973124140E+00 -0.529610856542781E+00  0.982034401746086E-03
  0.955162973124140E+00 -0.423704436434061E+00  0.114053765782245E-02
  0.955162973124140E+00 -0.317774315082929E+00  0.126648572031868E-02
  0.955162973124140E+00 -0.211850529508475E+00  0.135765429835745E-02
  0.955162973124140E+00 -0.105925053478478E+00  0.141277563637331E-02
  0.955162973124140E+00 -0.790519978293986E-17  0.143121210003614E-02
  0.955162973124140E+00  0.105925053478478E+00  0.141277563637331E-02
  0.955162973124140E+00  0.211850529508475E+00  0.135765429835745E-02
  0.955162973124140E+00  0.317774315082929E+00  0.126648572031868E-02
  0.955162973124140E+00  0.423704436434061E+00  0.114053765782245E-02
  0.955162973124140E+00  0.529610856542781E+00  0.982034401746084E-03
  0.955162973124140E+00  0.635605065171759E+00  0.794122829575476E-03
  0.955162973124140E+00  0.741262543272473E+00  0.582301820567967E-03
  0.955162973124140E+00  0.848039647510822E+00  0.349448194510086E-03
  0.955162973124140E+00  0.955162973124140E+00  0.104187482035309E-03
  0.955162973124140E+00  0.100000000000000E+01  0.000000000000000E+00
  0.100000000000000E+01 -0.100000000000000E+01  0.000000000000000E+00
  0.100000000000000E+01 -0.955162973124140E+00  0.000000000000000E+00
  0.100000000000000E+01 -0.848039647510822E+00  0.000000000000000E+00
  0.100000000000000E+01 -0.741262543272473E+00  0.000000000000000E+00
  0.100000000000000E+01 -0.635605065171759E+00  0.000000000000000E+00
  0.100000000000000E+01 -0.529610856542781E+00  0.000000000000000E+00
  0.100000000000000E+01 -0.423704436434061E+00  0.000000000000000E+00