 VARIABLES =  $x$  (b)
 ZONE I=         441 ,DATAPACKING=POINT
 -0.100000000000000E+01 -0.100000000000000E+01  0.100000000000000E+01
 -0.100000000000000E+01 -0.955162973124140E+00  0.100000000000000E+01
 -0.100000000000000E+01 -0.848039647510822E+00  0.100000000000000E+01
 -0.100000000000000E+01 -0.741262543272473E+00  0.100000000000000E+01
 -0.100000000000000E+01 -0.635605065171759E+00  0.100000000000000E+01
 -0.100000000000000E+01 -0.529610856542781E+00  0.100000000000000E+01
 -0.100000000000000E+01 -0.423704436434061E+00  0.100000000000000E+01
 -0.100000000000000E+01 -0.317774315082929E+00  0.100000000000000E+01
 -0.100000000000000E+01 -0.211850529508475E+00  0.100000000000000E+01
 -0.100000000000000E+01 -0.105925053478478E+00  0.100000000000000E+01
 -0.100000000000000E+01 -0.790519978293986E-17  0.100000000000000E+01
 -0.100000000000000E+01  0.105925053478478E+00  0.100000000000000E+01
 -0.100000000000000E+01  0.211850529508475E+00  0.100000000000000E+01
 -0.100000000000000E+01  0.317774315082929E+00  0.100000000000000E+01
 -0.100000000000000E+01  0.423704436434061E+00  0.100000000000000E+01
 -0.100000000000000E+01  0.529610856542781E+00  0.100000000000000E+01
 -0.100000000000000E+01  0.635605065171759E+00  0.100000000000000E+01
 -0.100000000000000E+01  0.741262543272473E+00  0.100000000000000E+01
 -0.100000000000000E+01  0.848039647510822E+00  0.100000000000000E+01
 -0.100000000000000E+01  0.955162973124140E+00  0.100000000000000E+01
 -0.100000000000000E+01  0.100000000000000E+01  0.100000000000000E+01
 -0.955162973124140E+00 -0.100000000000000E+01  0.686822927578423E+00
 -0.955162973124140E+00 -0.955162973124140E+00  0.801589322314318E+00
 -0.955162973124140E+00 -0.848039647510822E+00  0.889980562705410E+00
 -0.955162973124140E+00 -0.741262543272473E+00  0.917056771290397E+00
 -0.955162973124140E+00 -0.635605065171759E+00  0.929781631675380E+00
 -0.955162973124140E+00 -0.529610856542781E+00  0.936999323255354E+00
 -0.955162973124140E+00 -0.423704436434061E+00  0.941332757965413E+00
 -0.955162973124140E+00 -0.317774315082929E+00  0.943988348385878E+00
 -0.955162973124140E+00 -0.211850529508475E+00  0.945576783070824E+00
 -0.955162973124140E+00 -0.105925053478478E+00  0.946423224075278E+00
 -0.955162973124140E+00 -0.790519978293986E-17  0.946689016426722E+00
 -0.955162973124140E+00  0.105925053478478E+00  0.946423224075278E+00
 -0.955162973124140E+00  0.211850529508475E+00  0.945576783070825E+00
 -0.955162973124140E+00  0.317774315082929E+00  0.943988348385878E+00
 -0.955162973124140E+00  0.423704436434061E+00  0.941332757965412E+00
 -0.955162973124140E+00  0.529610856542781E+00  0.936999323255354E+00
 -0.955162973124140E+00  0.635605065171759E+00  0.929781631675380E+00
 -0.955162973124140E+00  0.741262543272473E+00  0.917056771290397E+00
 -0.955162973124140E+00  0.848039647510822E+00  0.889980562705410E+00
 -0.955162973124140E+00  0.955162973124140E+00  0.801589322314319E+00
 -0.955162973124140E+00  0.100000000000000E+01  0.686822927578424E+00
 -0.848039647510822E+00 -0.100000000000000E+01  0.438455565499488E+00
 -0.848039647510822E+00 -0.955162973124140E+00  0.525629143374453E+00
 -0.848039647510822E+00 -0.848039647510822E+00  0.661234428187069E+00
 -0.848039647510822E+00 -0.741262543272473E+00  0.730366818964461E+00
 -0.848039647510822E+00 -0.635605065171759E+00  0.767877673733785E+00
 -0.848039647510822E+00 -0.529610856542781E+00  0.790065613032163E+00
 -0.848039647510822E+00 -0.423704436434061E+00  0.803679655155819E+00
 -0.848039647510822E+00 -0.317774315082929E+00  0.812136134342489E+00
 -0.848039647510822E+00 -0.211850529508475E+00  0.817236930457874E+00
 -0.848039647510822E+00 -0.105925053478478E+00  0.819968343664169E+00
 -0.848039647510822E+00 -0.790519978293986E-17  0.820827982938122E+00
 -0.848039647510822E+00  0.105925053478478E+00  0.819968343664169E+00
 -0.848039647510822E+00  0.211850529508475E+00  0.817236930457874E+00
 -0.848039647510822E+00  0.317774315082929E+00  0.812136134342489E+00
 -0.848039647510822E+00  0.423704436434061E+00  0.803679655155819E+00
 -0.848039647510822E+00  0.529610856542781E+00  0.790065613032162E+00
 -0.848039647510822E+00  0.635605065171759E+00  0.767877673733784E+00
 -0.848039647510822E+00  0.741262543272473E+00  0.730366818964460E+00
 -0.848039647510822E+00  0.848039647510822E+00  0.661234428187070E+00
 -0.848039647510822E+00  0.955162973124140E+00  0.525629143374454E+00
 -0.848039647510822E+00  0.100000000000000E+01  0.438455565499489E+00
 -0.741262543272473E+00 -0.100000000000000E+01  0.309635881195853E+00
 -0.741262543272473E+00 -0.955162973124140E+00  0.374776069846609E+00
 -0.741262543272473E+00 -0.848039647510822E+00  0.496149852761066E+00
 -0.741262543272473E+00 -0.741262543272473E+00  0.574241008894381E+00
 -0.741262543272473E+00 -0.635605065171759E+00  0.623005601036690E+00
 -0.741262543272473E+00 -0.529610856542781E+00  0.654136284390545E+00
 -0.741262543272473E+00 -0.423704436434061E+00  0.674077725219075E+00
 -0.741262543272473E+00 -0.317774315082929E+00  0.686787548092067E+00
 -0.741262543272473E+00 -0.211850529508475E+00  0.694576092290903E+00
 -0.741262543272473E+00 -0.105925053478478E+00  0.698785648404451E+00
 -0.741262543272473E+00 -0.790519978293986E-17  0.700116237985282E+00
 -0.741262543272473E+00  0.105925053478478E+00  0.698785648404452E+00
 -0.741262543272473E+00  0.211850529508475E+00  0.694576092290903E+00
 -0.741262543272473E+00  0.317774315082929E+00  0.686787548092067E+00
 -0.741262543272473E+00  0.423704436434061E+00  0.674077725219075E+00
 -0.741262543272473E+00  0.529610856542781E+00  0.654136284390545E+00
 -0.741262543272473E+00  0.635605065171759E+00  0.623005601036690E+00
 -0.741262543272473E+00  0.741262543272473E+00  0.574241008894381E+00
 -0.741262543272473E+00  0.848039647510822E+00  0.496149852761067E+00
 -0.741262543272473E+00  0.955162973124140E+00  0.374776069846610E+00
 -0.741262543272473E+00  0.100000000000000E+01  0.309635881195854E+00
 -0.635605065171759E+00 -0.100000000000000E+01  0.229446892300416E+00
 -0.635605065171759E+00 -0.955162973124140E+00  0.278780112422821E+00
 -0.635605065171759E+00 -0.848039647510822E+00  0.378044338901809E+00
 -0.635605065171759E+00 -0.741262543272473E+00  0.450281362820874E+00
 -0.635605065171759E+00 -0.635605065171759E+00  0.500083123138064E+00
 -0.635605065171759E+00 -0.529610856542781E+00  0.534143469437517E+00
 -0.635605065171759E+00 -0.423704436434061E+00  0.556988167679107E+00
 -0.635605065171759E+00 -0.317774315082929E+00  0.571995956580144E+00
 -0.635605065171759E+00 -0.211850529508475E+00  0.581374898912640E+00
 -0.635605065171759E+00 -0.105925053478478E+00  0.586504535489838E+00
 -0.635605065171759E+00 -0.790519978293986E-17  0.588135086885952E+00
 -0.635605065171759E+00  0.105925053478478E+00  0.586504535489838E+00
 -0.635605065171759E+00  0.211850529508475E+00  0.581374898912640E+00
 -0.635605065171759E+00  0.317774315082929E+00  0.571995956580144E+00
 -0.635605065171759E+00  0.423704436434061E+00  0.556988167679107E+00
 -0.635605065171759E+00  0.529610856542781E+00  0.534143469437517E+00
 -0.635605065171759E+00  0.635605065171759E+00  0.500083123138064E+00
 -0.635605065171759E+00  0.741262543272473E+00  0.450281362820874E+00
 -0.635605065171759E+00  0.848039647510822E+00  0.378044338901810E+00
 -0.635605065171759E+00  0.955162973124140E+00  0.278780112422821E+00
 -0.635605065171759E+00  0.100000000000000E+01  0.229446892300416E+00
 -0.529610856542781E+00 -0.100000000000000E+01  0.173155156292155E+00
 -0.529610856542781E+00 -0.955162973124140E+00  0.210785364703186E+00
 -0.529610856542781E+00 -0.848039647510822E+00  0.289685716671481E+00
 -0.529610856542781E+00 -0.741262543272473E+00  0.351355926211506E+00
 -0.529610856542781E+00 -0.635605065171759E+00  0.396846550736600E+00
 -0.529610856542781E+00 -0.529610856542781E+00  0.429714207429272E+00
 -0.529610856542781E+00 -0.423704436434061E+00  0.452691795609266E+00
 -0.529610856542781E+00 -0.317774315082929E+00  0.468243859396936E+00
 -0.529610856542781E+00 -0.211850529508475E+00  0.478164204292996E+00
 -0.529610856542781E+00 -0.105925053478478E+00  0.483660134842525E+00
 -0.529610856542781E+00 -0.790519978293986E-17  0.485417994927492E+00
 -0.529610856542781E+00  0.105925053478478E+00  0.483660134842526E+00
 -0.529610856542781E+00  0.211850529508475E+00  0.478164204292996E+00
 -0.529610856542781E+00  0.317774315082929E+00  0.468243859396936E+00
 -0.529610856542781E+00  0.423704436434061E+00  0.452691795609266E+00
 -0.529610856542781E+00  0.529610856542781E+00  0.429714207429271E+00
 -0.529610856542781E+00  0.635605065171759E+00  0.396846550736600E+00
 -0.529610856542781E+00  0.741262543272473E+00  0.351355926211506E+00
 -0.529610856542781E+00  0.848039647510822E+00  0.289685716671481E+00
 -0.529610856542781E+00  0.955162973124140E+00  0.210785364703187E+00
 -0.529610856542781E+00  0.100000000000000E+01  0.173155156292155E+00
 -0.423704436434061E+00 -0.100000000000000E+01  0.131547533221836E+00
 -0.423704436434061E+00 -0.955162973124140E+00  0.160311344379656E+00
 -0.423704436434061E+00 -0.848039647510822E+00  0.222132541800281E+00
 -0.423704436434061E+00 -0.741262543272473E+00  0.272643856652370E+00
 -0.423704436434061E+00 -0.635605065171759E+00  0.311665466018779E+00
 -0.423704436434061E+00 -0.529610856542781E+00  0.341056003973957E+00
 -0.423704436434061E+00 -0.423704436434061E+00  0.362320734027871E+00
 -0.423704436434061E+00 -0.317774315082929E+00  0.377100794978684E+00
 -0.423704436434061E+00 -0.211850529508475E+00  0.386711723266211E+00
 -0.423704436434061E+00 -0.105925053478478E+00  0.392103096788643E+00
 -0.423704436434061E+00 -0.790519978293986E-17  0.393838140659946E+00
 -0.423704436434061E+00  0.105925053478478E+00  0.392103096788643E+00
 -0.423704436434061E+00  0.211850529508475E+00  0.386711723266211E+00
 -0.423704436434061E+00  0.317774315082929E+00  0.377100794978684E+00
 -0.423704436434061E+00  0.423704436434061E+00  0.362320734027871E+00
 -0.423704436434061E+00  0.529610856542781E+00  0.341056003973957E+00
 -0.423704436434061E+00  0.635605065171759E+00  0.311665466018778E+00
 -0.423704436434061E+00  0.741262543272473E+00  0.272643856652370E+00
 -0.423704436434061E+00  0.848039647510822E+00  0.222132541800281E+00
 -0.423704436434061E+00  0.955162973124140E+00  0.160311344379656E+00
 -0.423704436434061E+00  0.100000000000000E+01  0.131547533221836E+00
 -0.317774315082929E+00 -0.100000000000000E+01  0.998258322185741E-01
 -0.317774315082929E+00 -0.955162973124140E+00  0.121738405170510E+00
 -0.317774315082929E+00 -0.848039647510822E+00  0.169597157177184E+00
 -0.317774315082929E+00 -0.741262543272473E+00  0.209860969733227E+00
 -0.317774315082929E+00 -0.635605065171759E+00  0.241987653348426E+00
 -0.317774315082929E+00 -0.529610856542781E+00  0.266950510177479E+00
 -0.317774315082929E+00 -0.423704436434061E+00  0.285514751673162E+00
 -0.317774315082929E+00 -0.317774315082929E+00  0.298710827044001E+00
 -0.317774315082929E+00 -0.211850529508475E+00  0.307438585581128E+00
 -0.317774315082929E+00 -0.105925053478478E+00  0.312390383091351E+00
 -0.317774315082929E+00 -0.790519978293986E-17  0.313993040851281E+00
 -0.317774315082929E+00  0.105925053478478E+00  0.312390383091351E+00
 -0.317774315082929E+00  0.211850529508475E+00  0.307438585581128E+00
 -0.317774315082929E+00  0.317774315082929E+00  0.298710827044001E+00
 -0.317774315082929E+00  0.423704436434061E+00  0.285514751673162E+00
 -0.317774315082929E+00  0.529610856542781E+00  0.266950510177478E+00
 -0.317774315082929E+00  0.635605065171759E+00  0.241987653348426E+00
 -0.317774315082929E+00  0.741262543272473E+00  0.209860969733227E+00
 -0.317774315082929E+00  0.848039647510822E+00  0.169597157177185E+00
 -0.317774315082929E+00  0.955162973124140E+00  0.121738405170510E+00
 -0.317774315082929E+00  0.100000000000000E+01  0.998258322185744E-01
 -0.211850529508475E+00 -0.100000000000000E+01  0.753078799507379E-01
 -0.211850529508475E+00 -0.955162973124140E+00  0.918819599267499E-01
 -0.211850529508475E+00 -0.848039647510822E+00  0.128481206210478E+00
 -0.211850529508475E+00 -0.741262543272473E+00  0.159901005192241E+00
 -0.211850529508475E+00 -0.635605065171759E+00  0.185558535400732E+00
 -0.211850529508475E+00 -0.529610856542781E+00  0.205966668041330E+00
 -0.211850529508475E+00 -0.423704436434061E+00  0.221475574511818E+00
 -0.211850529508475E+00 -0.317774315082929E+00  0.232704996197490E+00
 -0.211850529508475E+00 -0.211850529508475E+00  0.240239843214745E+00
 -0.211850529508475E+00 -0.105925053478478E+00  0.244557225325797E+00
 -0.211850529508475E+00 -0.790519978293986E-17  0.245961575453372E+00
 -0.211850529508475E+00  0.105925053478478E+00  0.244557225325798E+00
 -0.211850529508475E+00  0.211850529508475E+00  0.240239843214746E+00
 -0.211850529508475E+00  0.317774315082929E+00  0.232704996197490E+00
 -0.211850529508475E+00  0.423704436434061E+00  0.221475574511817E+00
 -0.211850529508475E+00  0.529610856542781E+00  0.205966668041330E+00
 -0.211850529508475E+00  0.635605065171759E+00  0.185558535400732E+00
 -0.211850529508475E+00  0.741262543272473E+00  0.159901005192241E+00
 -0.211850529508475E+00  0.848039647510822E+00  0.128481206210478E+00
 -0.211850529508475E+00  0.955162973124140E+00  0.918819599267502E-01
 -0.211850529508475E+00  0.100000000000000E+01  0.753078799507382E-01
 -0.105925053478478E+00 -0.100000000000000E+01  0.562863198201113E-01
 -0.105925053478478E+00 -0.955162973124140E+00  0.686970140992424E-01
 -0.105925053478478E+00 -0.848039647510822E+00  0.963179994902824E-01
 -0.105925053478478E+00 -0.741262543272473E+00  0.120376102607762E+00
 -0.105925053478478E+00 -0.635605065171759E+00  0.140359023637414E+00
 -0.105925053478478E+00 -0.529610856542781E+00  0.156537974006419E+00
 -0.105925053478478E+00 -0.423704436434061E+00  0.169043354713787E+00
 -0.105925053478478E+00 -0.317774315082929E+00  0.178234174054202E+00
 -0.105925053478478E+00 -0.211850529508475E+00  0.184475384805206E+00
 -0.105925053478478E+00 -0.105925053478478E+00  0.188081515434333E+00
 -0.105925053478478E+00 -0.790519978293986E-17  0.189259553660922E+00
 -0.105925053478478E+00  0.105925053478478E+00  0.188081515434333E+00
 -0.105925053478478E+00  0.211850529508475E+00  0.184475384805206E+00
 -0.105925053478478E+00  0.317774315082929E+00  0.178234174054202E+00
 -0.105925053478478E+00  0.423704436434061E+00  0.169043354713787E+00
 -0.105925053478478E+00  0.529610856542781E+00  0.156537974006419E+00
 -0.105925053478478E+00  0.635605065171759E+00  0.140359023637414E+00
 -0.105925053478478E+00  0.741262543272473E+00  0.120376102607762E+00
 -0.105925053478478E+00  0.848039647510822E+00  0.963179994902826E-01
 -0.105925053478478E+00  0.955162973124140E+00  0.686970140992426E-01
 -0.105925053478478E+00  0.100000000000000E+01  0.562863198201115E-01
 -0.790519978293986E-17 -0.100000000000000E+01  0.415781429677991E-01
 -0.790519978293986E-17 -0.955162973124140E+00  0.507582144994159E-01
 -0.790519978293986E-17 -0.848039647510822E+00  0.713070363678817E-01
 -0.790519978293986E-17 -0.741262543272473E+00  0.893975050979342E-01
 -0.790519978293986E-17 -0.635605065171759E+00  0.104616498483114E+00
 -0.790519978293986E-17 -0.529610856542781E+00  0.117107125938954E+00
 -0.790519978293986E-17 -0.423704436434061E+00  0.126891218641100E+00
 -0.790519978293986E-17 -0.317774315082929E+00  0.134168829718182E+00
 -0.790519978293986E-17 -0.211850529508475E+00  0.139159560397105E+00
 -0.790519978293986E-17 -0.105925053478478E+00  0.142063265612947E+00
 -0.790519978293986E-17 -0.790519978293986E-17  0.143015257520520E+00
 -0.790519978293986E-17  0.105925053478478E+00  0.142063265612947E+00
 -0.790519978293986E-17  0.211850529508475E+00  0.139159560397105E+00
 -0.790519978293986E-17  0.317774315082929E+00  0.134168829718182E+00
 -0.790519978293986E-17  0.423704436434061E+00  0.126891218641100E+00
 -0.790519978293986E-17  0.529610856542781E+00  0.117107125938954E+00
 -0.790519978293986E-17  0.635605065171759E+00  0.104616498483114E+00
 -0.790519978293986E-17  0.741262543272473E+00  0.893975050979342E-01
 -0.790519978293986E-17  0.848039647510822E+00  0.713070363678818E-01
 -0.790519978293986E-17  0.955162973124140E+00  0.507582144994160E-01
 -0.790519978293986E-17  0.100000000000000E+01  0.415781429677993E-01
  0.105925053478478E+00 -0.100000000000000E+01  0.302973670776341E-01
  0.105925053478478E+00 -0.955162973124140E+00  0.369935458849867E-01
  0.105925053478478E+00 -0.848039647510822E+00  0.520474358035328E-01
  0.105925053478478E+00 -0.741262543272473E+00  0.654077274187922E-01
  0.105925053478478E+00 -0.635605065171759E+00  0.767573660878989E-01
  0.105925053478478E+00 -0.529610856542781E+00  0.861711332542256E-01
  0.105925053478478E+00 -0.423704436434061E+00  0.936230986516910E-01
  0.105925053478478E+00 -0.317774315082929E+00  0.992196801042136E-01
  0.105925053478478E+00 -0.211850529508475E+00  0.103088407509115E+00
  0.105925053478478E+00 -0.105925053478478E+00  0.105352212878610E+00
  0.105925053478478E+00 -0.790519978293986E-17  0.106096627252382E+00
  0.105925053478478E+00  0.105925053478478E+00  0.105352212878610E+00
  0.105925053478478E+00  0.211850529508475E+00  0.103088407509115E+00
  0.105925053478478E+00  0.317774315082929E+00  0.992196801042136E-01
  0.105925053478478E+00  0.423704436434061E+00  0.936230986516909E-01
  0.105925053478478E+00  0.529610856542781E+00  0.861711332542255E-01
  0.105925053478478E+00  0.635605065171759E+00  0.767573660878989E-01
  0.105925053478478E+00  0.741262543272473E+00  0.654077274187922E-01
  0.105925053478478E+00  0.848039647510822E+00  0.520474358035329E-01
  0.105925053478478E+00  0.955162973124140E+00  0.369935458849869E-01
  0.105925053478478E+00  0.100000000000000E+01  0.302973670776342E-01
  0.211850529508475E+00 -0.100000000000000E+01  0.217435797485317E-01
  0.211850529508475E+00 -0.955162973124140E+00  0.265529858620942E-01
  0.211850529508475E+00 -0.848039647510822E+00  0.374011958231097E-01
  0.211850529508475E+00 -0.741262543272473E+00  0.470889335023656E-01
  0.211850529508475E+00 -0.635605065171759E+00  0.553811367531943E-01
  0.211850529508475E+00 -0.529610856542781E+00  0.623161388783960E-01
  0.211850529508475E+00 -0.423704436434061E+00  0.678519935016399E-01
  0.211850529508475E+00 -0.317774315082929E+00  0.720418595949177E-01
  0.211850529508475E+00 -0.211850529508475E+00  0.749570323010781E-01
  0.211850529508475E+00 -0.105925053478478E+00  0.766708625343806E-01
  0.211850529508475E+00 -0.790519978293986E-17  0.772358109266619E-01
  0.211850529508475E+00  0.105925053478478E+00  0.766708625343807E-01
  0.211850529508475E+00  0.211850529508475E+00  0.749570323010781E-01
  0.211850529508475E+00  0.317774315082929E+00  0.720418595949177E-01
  0.211850529508475E+00  0.423704436434061E+00  0.678519935016398E-01
  0.211850529508475E+00  0.529610856542781E+00  0.623161388783960E-01
  0.211850529508475E+00  0.635605065171759E+00  0.553811367531943E-01
  0.211850529508475E+00  0.741262543272473E+00  0.470889335023656E-01
  0.211850529508475E+00  0.848039647510822E+00  0.374011958231098E-01
  0.211850529508475E+00  0.955162973124140E+00  0.265529858620943E-01
  0.211850529508475E+00  0.100000000000000E+01  0.217435797485317E-01
  0.317774315082929E+00 -0.100000000000000E+01  0.153444449332684E-01
  0.317774315082929E+00 -0.955162973124140E+00  0.187405039714899E-01
  0.317774315082929E+00 -0.848039647510822E+00  0.264206504047093E-01
  0.317774315082929E+00 -0.741262543272473E+00  0.333125821686549E-01
  0.317774315082929E+00 -0.635605065171759E+00  0.392468402908022E-01
  0.317774315082929E+00 -0.529610856542781E+00  0.442424643764782E-01
  0.317774315082929E+00 -0.423704436434061E+00  0.482569325669051E-01
  0.317774315082929E+00 -0.317774315082929E+00  0.513143410005241E-01
  0.317774315082929E+00 -0.211850529508475E+00  0.534528235543473E-01
  0.317774315082929E+00 -0.105925053478478E+00  0.547148497399167E-01
  0.317774315082929E+00 -0.790519978293986E-17  0.551317017945116E-01
  0.317774315082929E+00  0.105925053478478E+00  0.547148497399167E-01
  0.317774315082929E+00  0.211850529508475E+00  0.534528235543474E-01
  0.317774315082929E+00  0.317774315082929E+00  0.513143410005241E-01
  0.317774315082929E+00  0.423704436434061E+00  0.482569325669050E-01
  0.317774315082929E+00  0.529610856542781E+00  0.442424643764782E-01
  0.317774315082929E+00  0.635605065171759E+00  0.392468402908022E-01
  0.317774315082929E+00  0.741262543272473E+00  0.333125821686549E-01
  0.317774315082929E+00  0.848039647510822E+00  0.264206504047094E-01
  0.317774315082929E+00  0.955162973124140E+00  0.187405039714900E-01
  0.317774315082929E+00  0.100000000000000E+01  0.153444449332684E-01
  0.423704436434061E+00 -0.100000000000000E+01  0.106243091709248E-01
  0.423704436434061E+00 -0.955162973124140E+00  0.129768249946715E-01
  0.423704436434061E+00 -0.848039647510822E+00  0.183079186066053E-01
  0.423704436434061E+00 -0.741262543272473E+00  0.231102368085037E-01
  0.423704436434061E+00 -0.635605065171759E+00  0.272647366942530E-01
  0.423704436434061E+00 -0.529610856542781E+00  0.307804195427427E-01
  0.423704436434061E+00 -0.423704436434061E+00  0.336207735986598E-01
  0.423704436434061E+00 -0.317774315082929E+00  0.357948914377323E-01
  0.423704436434061E+00 -0.211850529508475E+00  0.373220703619242E-01
  0.423704436434061E+00 -0.105925053478478E+00  0.382261415716917E-01
  0.423704436434061E+00 -0.790519978293986E-17  0.385252495323189E-01
  0.423704436434061E+00  0.105925053478478E+00  0.382261415716917E-01
  0.423704436434061E+00  0.211850529508475E+00  0.373220703619243E-01
  0.423704436434061E+00  0.317774315082929E+00  0.357948914377323E-01
  0.423704436434061E+00  0.423704436434061E+00  0.336207735986598E-01
  0.423704436434061E+00  0.529610856542781E+00  0.307804195427426E-01
  0.423704436434061E+00  0.635605065171759E+00  0.272647366942530E-01
  0.423704436434061E+00  0.741262543272473E+00  0.231102368085037E-01
  0.423704436434061E+00  0.848039647510822E+00  0.183079186066053E-01
  0.423704436434061E+00  0.955162973124140E+00  0.129768249946716E-01
  0.423704436434061E+00  0.100000000000000E+01  0.106243091709248E-01
  0.529610856542781E+00 -0.100000000000000E+01  0.718816321427148E-02
  0.529610856542781E+00 -0.955162973124140E+00  0.878042331409395E-02
  0.529610856542781E+00 -0.848039647510822E+00  0.123945305827350E-01
  0.529610856542781E+00 -0.741262543272473E+00  0.156600398949525E-01
  0.529610856542781E+00 -0.635605065171759E+00  0.184955936800237E-01
  0.529610856542781E+00 -0.529610856542781E+00  0.209051283510550E-01
  0.529610856542781E+00 -0.423704436434061E+00  0.228601577829098E-01
  0.529610856542781E+00 -0.317774315082929E+00  0.243626664476541E-01
  0.529610856542781E+00 -0.211850529508475E+00  0.254217175047814E-01
  0.529610856542781E+00 -0.105925053478478E+00  0.260502378629404E-01
  0.529610856542781E+00 -0.790519978293986E-17  0.262584567424565E-01
  0.529610856542781E+00  0.105925053478478E+00  0.260502378629404E-01
  0.529610856542781E+00  0.211850529508475E+00  0.254217175047814E-01
  0.529610856542781E+00  0.317774315082929E+00  0.243626664476541E-01
  0.529610856542781E+00  0.423704436434061E+00  0.228601577829098E-01
  0.529610856542781E+00  0.529610856542781E+00  0.209051283510550E-01
  0.529610856542781E+00  0.635605065171759E+00  0.184955936800237E-01
  0.529610856542781E+00  0.741262543272473E+00  0.156600398949525E-01
  0.529610856542781E+00  0.848039647510822E+00  0.123945305827350E-01
  0.529610856542781E+00  0.955162973124140E+00  0.878042331409397E-02
  0.529610856542781E+00  0.100000000000000E+01  0.718816321427150E-02
  0.635605065171759E+00 -0.100000000000000E+01  0.470377660065130E-02
  0.635605065171759E+00 -0.955162973124140E+00  0.574602470794846E-02
  0.635605065171759E+00 -0.848039647510822E+00  0.811471268189086E-02
  0.635605065171759E+00 -0.741262543272473E+00  0.102600014847945E-01
  0.635605065171759E+00 -0.635605065171759E+00  0.121282737873560E-01
  0.635605065171759E+00 -0.529610856542781E+00  0.137210368904106E-01
  0.635605065171759E+00 -0.423704436434061E+00  0.150177158513233E-01
  0.635605065171759E+00 -0.317774315082929E+00  0.160174369444805E-01
  0.635605065171759E+00 -0.211850529508475E+00  0.167240130972034E-01
  0.635605065171759E+00 -0.105925053478478E+00  0.171441822966625E-01
  0.635605065171759E+00 -0.790519978293986E-17  0.172835239635280E-01
  0.635605065171759E+00  0.105925053478478E+00  0.171441822966626E-01
  0.635605065171759E+00  0.211850529508475E+00  0.167240130972035E-01
  0.635605065171759E+00  0.317774315082929E+00  0.160174369444805E-01
  0.635605065171759E+00  0.423704436434061E+00  0.150177158513233E-01
  0.635605065171759E+00  0.529610856542781E+00  0.137210368904106E-01
  0.635605065171759E+00  0.635605065171759E+00  0.121282737873560E-01
  0.635605065171759E+00  0.741262543272473E+00  0.102600014847945E-01
  0.635605065171759E+00  0.848039647510822E+00  0.811471268189087E-02
  0.635605065171759E+00  0.955162973124140E+00  0.574602470794848E-02
  0.635605065171759E+00  0.100000000000000E+01  0.470377660065131E-02
  0.741262543272473E+00 -0.100000000000000E+01  0.290500273344939E-02
  0.741262543272473E+00 -0.955162973124140E+00  0.354882611882053E-02
  0.741262543272473E+00 -0.848039647510822E+00  0.501340820022752E-02
  0.741262543272473E+00 -0.741262543272473E+00  0.634220514384892E-02
  0.741262543272473E+00 -0.635605065171759E+00  0.750194185624223E-02
  0.741262543272473E+00 -0.529610856542781E+00  0.849306795935300E-02
  0.741262543272473E+00 -0.423704436434061E+00  0.930198565086050E-02
  0.741262543272473E+00 -0.317774315082929E+00  0.992714056419051E-02
  0.741262543272473E+00 -0.211850529508475E+00  0.103698858297094E-01
  0.741262543272473E+00 -0.105925053478478E+00  0.106335599850142E-01
  0.741262543272473E+00 -0.790519978293986E-17  0.107210719124815E-01
  0.741262543272473E+00  0.105925053478478E+00  0.106335599850142E-01
  0.741262543272473E+00  0.211850529508475E+00  0.103698858297095E-01
  0.741262543272473E+00  0.317774315082929E+00  0.992714056419051E-02
  0.741262543272473E+00  0.423704436434061E+00  0.930198565086049E-02
  0.741262543272473E+00  0.529610856542781E+00  0.849306795935299E-02
  0.741262543272473E+00  0.635605065171759E+00  0.750194185624222E-02
  0.741262543272473E+00  0.741262543272473E+00  0.634220514384892E-02
  0.741262543272473E+00  0.848039647510822E+00  0.501340820022753E-02
  0.741262543272473E+00  0.955162973124140E+00  0.354882611882054E-02
  0.741262543272473E+00  0.100000000000000E+01  0.290500273344940E-02
  0.848039647510822E+00 -0.100000000000000E+01  0.154218086141975E-02
  0.848039647510822E+00 -0.955162973124140E+00  0.188401893225911E-02
  0.848039647510822E+00 -0.848039647510822E+00  0.266213690767181E-02
  0.848039647510822E+00 -0.741262543272473E+00  0.336895889943186E-02
  0.848039647510822E+00 -0.635605065171759E+00  0.398676512485905E-02
  0.848039647510822E+00 -0.529610856542781E+00  0.451562384694393E-02
  0.848039647510822E+00 -0.423704436434061E+00  0.494799597286040E-02
  0.848039647510822E+00 -0.317774315082929E+00  0.528268791354416E-02
  0.848039647510822E+00 -0.211850529508475E+00  0.552005129615831E-02
  0.848039647510822E+00 -0.105925053478478E+00  0.566155511228033E-02
  0.848039647510822E+00 -0.790519978293986E-17  0.570854463087190E-02
  0.848039647510822E+00  0.105925053478478E+00  0.566155511228033E-02
  0.848039647510822E+00  0.211850529508475E+00  0.552005129615831E-02
  0.848039647510822E+00  0.317774315082929E+00  0.528268791354416E-02
  0.848039647510822E+00  0.423704436434061E+00  0.494799597286039E-02
  0.848039647510822E+00  0.529610856542781E+00  0.451562384694393E-02
  0.848039647510822E+00  0.635605065171759E+00  0.398676512485905E-02
  0.848039647510822E+00  0.741262543272473E+00  0.336895889943186E-02
  0.848039647510822E+00  0.848039647510822E+00  0.266213690767181E-02
  0.848039647510822E+00  0.955162973124140E+00  0.188401893225911E-02
  0.848039647510822E+00  0.100000000000000E+01  0.154218086141975E-02
  0.955162973124140E+00 -0.100000000000000E+01  0.432344906299721E-03
  0.955162973124140E+00 -0.955162973124140E+00  0.528184869957224E-03
  0.955162973124140E+00 -0.848039647510822E+00  0.746410216740790E-03
  0.955162973124140E+00 -0.741262543272473E+00  0.944754364870546E-03
  0.955162973124140E+00 -0.635605065171759E+00  0.111824253268492E-02
  0.955162973124140E+00 -0.529610856542781E+00  0.126687117988275E-02
  0.955162973124140E+00 -0.423704436434061E+00  0.138848363216819E-02
  0.955162973124140E+00 -0.317774315082929E+00  0.148269536002683E-02
  0.955162973124140E+00 -0.211850529508475E+00  0.154955496991739E-02
  0.955162973124140E+00 -0.105925053478478E+00  0.158943274854954E-02
  0.955162973124140E+00 -0.790519978293986E-17  0.160267849211756E-02
  0.955162973124140E+00  0.105925053478478E+00  0.158943274854954E-02
  0.955162973124140E+00  0.211850529508475E+00  0.154955496991739E-02
  0.955162973124140E+00  0.317774315082929E+00  0.148269536002683E-02
  0.955162973124140E+00  0.423704436434061E+00  0.138848363216818E-02
  0.955162973124140E+00  0.529610856542781E+00  0.126687117988275E-02
  0.955162973124140E+00  0.635605065171759E+00  0.111824253268491E-02
  0.955162973124140E+00  0.741262543272473E+00  0.944754364870546E-03
  0.955162973124140E+00  0.848039647510822E+00  0.746410216740791E-03
  0.955162973124140E+00  0.955162973124140E+00  0.528184869957226E-03
  0.955162973124140E+00  0.100000000000000E+01  0.432344906299722E-03
  0.100000000000000E+01 -0.100000000000000E+01  0.000000000000000E+00
  0.100000000000000E+01 -0.955162973124140E+00  0.000000000000000E+00
  0.100000000000000E+01 -0.848039647510822E+00  0.000000000000000E+00
  0.100000000000000E+01 -0.741262543272473E+00  0.000000000000000E+00
  0.100000000000000E+01 -0.635605065171759E+00  0.000000000000000E+00
  0.100000000000000E+01 -0.529610856542781E+00  0.000000000000000E+00
  0.100000000000000E+01 -0.423704436434061E+00  0.000000000000000E+00