 VARIABLES =  $x$  (c)
 ZONE I=         441 ,DATAPACKING=POINT
 -0.100000000000000E+01 -0.100000000000000E+01  0.100000000000000E+01
 -0.100000000000000E+01 -0.955162973124140E+00  0.100000000000000E+01
 -0.100000000000000E+01 -0.848039647510822E+00  0.100000000000000E+01
 -0.100000000000000E+01 -0.741262543272473E+00  0.100000000000000E+01
 -0.100000000000000E+01 -0.635605065171759E+00  0.100000000000000E+01
 -0.100000000000000E+01 -0.529610856542781E+00  0.100000000000000E+01
 -0.100000000000000E+01 -0.423704436434061E+00  0.100000000000000E+01
 -0.100000000000000E+01 -0.317774315082929E+00  0.100000000000000E+01
 -0.100000000000000E+01 -0.211850529508475E+00  0.100000000000000E+01
 -0.100000000000000E+01 -0.105925053478478E+00  0.100000000000000E+01
 -0.100000000000000E+01 -0.790519978293986E-17  0.100000000000000E+01
 -0.100000000000000E+01  0.105925053478478E+00  0.100000000000000E+01
 -0.100000000000000E+01  0.211850529508475E+00  0.100000000000000E+01
 -0.100000000000000E+01  0.317774315082929E+00  0.100000000000000E+01
 -0.100000000000000E+01  0.423704436434061E+00  0.100000000000000E+01
 -0.100000000000000E+01  0.529610856542781E+00  0.100000000000000E+01
 -0.100000000000000E+01  0.635605065171759E+00  0.100000000000000E+01
 -0.100000000000000E+01  0.741262543272473E+00  0.100000000000000E+01
 -0.100000000000000E+01  0.848039647510822E+00  0.100000000000000E+01
 -0.100000000000000E+01  0.955162973124140E+00  0.100000000000000E+01
 -0.100000000000000E+01  0.100000000000000E+01  0.100000000000000E+01
 -0.955162973124140E+00 -0.100000000000000E+01  0.000000000000000E+00
 -0.955162973124140E+00 -0.955162973124140E+00  0.499102898087892E+00
 -0.955162973124140E+00 -0.848039647510822E+00  0.817055132619837E+00
 -0.955162973124140E+00 -0.741262543272473E+00  0.887222055889297E+00
 -0.955162973124140E+00 -0.635605065171759E+00  0.915154487053670E+00
 -0.955162973124140E+00 -0.529610856542781E+00  0.930159275820981E+00
 -0.955162973124140E+00 -0.423704436434061E+00  0.938989629818474E+00
 -0.955162973124140E+00 -0.317774315082929E+00  0.944386599901120E+00
 -0.955162973124140E+00 -0.211850529508475E+00  0.947636150535553E+00
 -0.955162973124140E+00 -0.105925053478478E+00  0.949383253283873E+00
 -0.955162973124140E+00 -0.790519978293986E-17  0.949935112569517E+00
 -0.955162973124140E+00  0.105925053478478E+00  0.949383253283873E+00
 -0.955162973124140E+00  0.211850529508475E+00  0.947636150535553E+00
 -0.955162973124140E+00  0.317774315082929E+00  0.944386599901120E+00
 -0.955162973124140E+00  0.423704436434061E+00  0.938989629818474E+00
 -0.955162973124140E+00  0.529610856542781E+00  0.930159275820980E+00
 -0.955162973124140E+00  0.635605065171759E+00  0.915154487053670E+00
 -0.955162973124140E+00  0.741262543272473E+00  0.887222055889297E+00
 -0.955162973124140E+00  0.848039647510822E+00  0.817055132619837E+00
 -0.955162973124140E+00  0.955162973124140E+00  0.499102898087892E+00
 -0.955162973124140E+00  0.100000000000000E+01  0.000000000000000E+00
 -0.848039647510822E+00 -0.100000000000000E+01  0.000000000000000E+00
 -0.848039647510822E+00 -0.955162973124140E+00  0.176887132296496E+00
 -0.848039647510822E+00 -0.848039647510822E+00  0.489774150660497E+00
 -0.848039647510822E+00 -0.741262543272473E+00  0.644886516606006E+00
 -0.848039647510822E+00 -0.635605065171759E+00  0.724225890491736E+00
 -0.848039647510822E+00 -0.529610856542781E+00  0.769488889790481E+00
 -0.848039647510822E+00 -0.423704436434061E+00  0.796911391536323E+00
 -0.848039647510822E+00 -0.317774315082929E+00  0.813985690653649E+00
 -0.848039647510822E+00 -0.211850529508475E+00  0.824384507526634E+00
 -0.848039647510822E+00 -0.105925053478478E+00  0.830011961089327E+00
 -0.848039647510822E+00 -0.790519978293986E-17  0.831794789584710E+00
 -0.848039647510822E+00  0.105925053478478E+00  0.830011961089327E+00
 -0.848039647510822E+00  0.211850529508475E+00  0.824384507526634E+00
 -0.848039647510822E+00  0.317774315082929E+00  0.813985690653649E+00
 -0.848039647510822E+00  0.423704436434061E+00  0.796911391536322E+00
 -0.848039647510822E+00  0.529610856542781E+00  0.769488889790481E+00
 -0.848039647510822E+00  0.635605065171759E+00  0.724225890491735E+00
 -0.848039647510822E+00  0.741262543272473E+00  0.644886516606006E+00
 -0.848039647510822E+00  0.848039647510822E+00  0.489774150660497E+00
 -0.848039647510822E+00  0.955162973124140E+00  0.176887132296496E+00
 -0.848039647510822E+00  0.100000000000000E+01  0.000000000000000E+00
 -0.741262543272473E+00 -0.100000000000000E+01  0.000000000000000E+00
 -0.741262543272473E+00 -0.955162973124140E+00  0.102543037827741E+00
 -0.741262543272473E+00 -0.848039647510822E+00  0.320562368827879E+00
 -0.741262543272473E+00 -0.741262543272473E+00  0.470820444938813E+00
 -0.741262543272473E+00 -0.635605065171759E+00  0.565902049715731E+00
 -0.741262543272473E+00 -0.529610856542781E+00  0.626787237800461E+00
 -0.741262543272473E+00 -0.423704436434061E+00  0.666073994886820E+00
 -0.741262543272473E+00 -0.317774315082929E+00  0.691438909560460E+00
 -0.741262543272473E+00 -0.211850529508475E+00  0.707223267533791E+00
 -0.741262543272473E+00 -0.105925053478478E+00  0.715870748651242E+00
 -0.741262543272473E+00 -0.790519978293986E-17  0.718625776385097E+00
 -0.741262543272473E+00  0.105925053478478E+00  0.715870748651243E+00
 -0.741262543272473E+00  0.211850529508475E+00  0.707223267533791E+00
 -0.741262543272473E+00  0.317774315082929E+00  0.691438909560460E+00
 -0.741262543272473E+00  0.423704436434061E+00  0.666073994886820E+00
 -0.741262543272473E+00  0.529610856542781E+00  0.626787237800460E+00
 -0.741262543272473E+00  0.635605065171759E+00  0.565902049715731E+00
 -0.741262543272473E+00  0.741262543272473E+00  0.470820444938812E+00
 -0.741262543272473E+00  0.848039647510822E+00  0.320562368827879E+00
 -0.741262543272473E+00  0.955162973124140E+00  0.102543037827741E+00
 -0.741262543272473E+00  0.100000000000000E+01  0.000000000000000E+00
 -0.635605065171759E+00 -0.100000000000000E+01  0.000000000000000E+00
 -0.635605065171759E+00 -0.955162973124140E+00  0.705907447192853E-01
 -0.635605065171759E+00 -0.848039647510822E+00  0.227659681090397E+00
 -0.635605065171759E+00 -0.741262543272473E+00  0.352854198100400E+00
 -0.635605065171759E+00 -0.635605065171759E+00  0.443475019444662E+00
 -0.635605065171759E+00 -0.529610856542781E+00  0.507391655095393E+00
 -0.635605065171759E+00 -0.423704436434061E+00  0.551365778088372E+00
 -0.635605065171759E+00 -0.317774315082929E+00  0.580954371457500E+00
 -0.635605065171759E+00 -0.211850529508475E+00  0.599853193505287E+00
 -0.635605065171759E+00 -0.105925053478478E+00  0.610367290469219E+00
 -0.635605065171759E+00 -0.790519978293986E-17  0.613741042530171E+00
 -0.635605065171759E+00  0.105925053478478E+00  0.610367290469219E+00
 -0.635605065171759E+00  0.211850529508475E+00  0.599853193505287E+00
 -0.635605065171759E+00  0.317774315082929E+00  0.580954371457500E+00
 -0.635605065171759E+00  0.423704436434061E+00  0.551365778088372E+00
 -0.635605065171759E+00  0.529610856542781E+00  0.507391655095393E+00
 -0.635605065171759E+00  0.635605065171759E+00  0.443475019444662E+00
 -0.635605065171759E+00  0.741262543272473E+00  0.352854198100400E+00
 -0.635605065171759E+00  0.848039647510822E+00  0.227659681090397E+00
 -0.635605065171759E+00  0.955162973124140E+00  0.705907447192853E-01
 -0.635605065171759E+00  0.100000000000000E+01  0.000000000000000E+00
 -0.529610856542781E+00 -0.100000000000000E+01  0.000000000000000E+00
 -0.529610856542781E+00 -0.955162973124140E+00  0.516966164927880E-01
 -0.529610856542781E+00 -0.848039647510822E+00  0.169281378075043E+00
 -0.529610856542781E+00 -0.741262543272473E+00  0.269866914376322E+00
 -0.529610856542781E+00 -0.635605065171759E+00  0.348895307243162E+00
 -0.529610856542781E+00 -0.529610856542781E+00  0.408732895835544E+00
 -0.529610856542781E+00 -0.423704436434061E+00  0.452199367517209E+00
 -0.529610856542781E+00 -0.317774315082929E+00  0.482603647370132E+00
 -0.529610856542781E+00 -0.211850529508475E+00  0.502539111223750E+00
 -0.529610856542781E+00 -0.105925053478478E+00  0.513810128530299E+00
 -0.529610856542781E+00 -0.790519978293986E-17  0.517454599530145E+00
 -0.529610856542781E+00  0.105925053478478E+00  0.513810128530300E+00
 -0.529610856542781E+00  0.211850529508475E+00  0.502539111223751E+00
 -0.529610856542781E+00  0.317774315082929E+00  0.482603647370132E+00
 -0.529610856542781E+00  0.423704436434061E+00  0.452199367517209E+00
 -0.529610856542781E+00  0.529610856542781E+00  0.408732895835543E+00
 -0.529610856542781E+00  0.635605065171759E+00  0.348895307243162E+00
 -0.529610856542781E+00  0.741262543272473E+00  0.269866914376322E+00
 -0.529610856542781E+00  0.848039647510822E+00  0.169281378075043E+00
 -0.529610856542781E+00  0.955162973124140E+00  0.516966164927881E-01
 -0.529610856542781E+00  0.100000000000000E+01  0.000000000000000E+00
 -0.423704436434061E+00 -0.100000000000000E+01  0.000000000000000E+00
 -0.423704436434061E+00 -0.955162973124140E+00  0.391365692602648E-01
 -0.423704436434061E+00 -0.848039647510822E+00  0.129292658579909E+00
 -0.423704436434061E+00 -0.741262543272473E+00  0.209440532945942E+00
 -0.423704436434061E+00 -0.635605065171759E+00  0.275669429401384E+00
 -0.423704436434061E+00 -0.529610856542781E+00  0.328359321305974E+00
 -0.423704436434061E+00 -0.423704436434061E+00  0.368281449025414E+00
 -0.423704436434061E+00 -0.317774315082929E+00  0.397135323190777E+00
 -0.423704436434061E+00 -0.211850529508475E+00  0.416503504884753E+00
 -0.423704436434061E+00 -0.105925053478478E+00  0.427619541095318E+00
 -0.423704436434061E+00 -0.790519978293986E-17  0.431240271429322E+00
 -0.423704436434061E+00  0.105925053478478E+00  0.427619541095319E+00
 -0.423704436434061E+00  0.211850529508475E+00  0.416503504884753E+00
 -0.423704436434061E+00  0.317774315082929E+00  0.397135323190776E+00
 -0.423704436434061E+00  0.423704436434061E+00  0.368281449025414E+00
 -0.423704436434061E+00  0.529610856542781E+00  0.328359321305974E+00
 -0.423704436434061E+00  0.635605065171759E+00  0.275669429401384E+00
 -0.423704436434061E+00  0.741262543272473E+00  0.209440532945942E+00
 -0.423704436434061E+00  0.848039647510822E+00  0.129292658579909E+00
 -0.423704436434061E+00  0.955162973124140E+00  0.391365692602648E-01
 -0.423704436434061E+00  0.100000000000000E+01  0.000000000000000E+00
 -0.317774315082929E+00 -0.100000000000000E+01  0.000000000000000E+00
 -0.317774315082929E+00 -0.955162973124140E+00  0.301569286128492E-01
 -0.317774315082929E+00 -0.848039647510822E+00  0.100162524328350E+00
 -0.317774315082929E+00 -0.741262543272473E+00  0.163845911794480E+00
 -0.317774315082929E+00 -0.635605065171759E+00  0.218191200903640E+00
 -0.317774315082929E+00 -0.529610856542781E+00  0.262934200056702E+00
 -0.317774315082929E+00 -0.423704436434061E+00  0.297920787385649E+00
 -0.317774315082929E+00 -0.317774315082929E+00  0.323876004842232E+00
 -0.317774315082929E+00 -0.211850529508475E+00  0.341644439123871E+00
 -0.317774315082929E+00 -0.105925053478478E+00  0.351976016317925E+00
 -0.317774315082929E+00 -0.790519978293986E-17  0.355363060103819E+00
 -0.317774315082929E+00  0.105925053478478E+00  0.351976016317925E+00
 -0.317774315082929E+00  0.211850529508475E+00  0.341644439123871E+00
 -0.317774315082929E+00  0.317774315082929E+00  0.323876004842231E+00
 -0.317774315082929E+00  0.423704436434061E+00  0.297920787385648E+00
 -0.317774315082929E+00  0.529610856542781E+00  0.262934200056702E+00
 -0.317774315082929E+00  0.635605065171759E+00  0.218191200903640E+00
 -0.317774315082929E+00  0.741262543272473E+00  0.163845911794479E+00
 -0.317774315082929E+00  0.848039647510822E+00  0.100162524328350E+00
 -0.317774315082929E+00  0.955162973124140E+00  0.301569286128492E-01
 -0.317774315082929E+00  0.100000000000000E+01  0.000000000000000E+00
 -0.211850529508475E+00 -0.100000000000000E+01  0.000000000000000E+00
 -0.211850529508475E+00 -0.955162973124140E+00  0.234370631561089E-01
 -0.211850529508475E+00 -0.848039647510822E+00  0.781072811789786E-01
 -0.211850529508475E+00 -0.741262543272473E+00  0.128573929607603E+00
 -0.211850529508475E+00 -0.635605065171759E+00  0.172567127987917E+00
 -0.211850529508475E+00 -0.529610856542781E+00  0.209663333709721E+00
 -0.211850529508475E+00 -0.423704436434061E+00  0.239351716037688E+00
 -0.211850529508475E+00 -0.317774315082929E+00  0.261824964088128E+00
 -0.211850529508475E+00 -0.211850529508475E+00  0.277454571672508E+00
 -0.211850529508475E+00 -0.105925053478478E+00  0.286640760066414E+00
 -0.211850529508475E+00 -0.790519978293986E-17  0.289668694026913E+00
 -0.211850529508475E+00  0.105925053478478E+00  0.286640760066415E+00
 -0.211850529508475E+00  0.211850529508475E+00  0.277454571672508E+00
 -0.211850529508475E+00  0.317774315082929E+00  0.261824964088128E+00
 -0.211850529508475E+00  0.423704436434061E+00  0.239351716037688E+00
 -0.211850529508475E+00  0.529610856542781E+00  0.209663333709721E+00
 -0.211850529508475E+00  0.635605065171759E+00  0.172567127987916E+00
 -0.211850529508475E+00  0.741262543272473E+00  0.128573929607603E+00
 -0.211850529508475E+00  0.848039647510822E+00  0.781072811789785E-01
 -0.211850529508475E+00  0.955162973124140E+00  0.234370631561088E-01
 -0.211850529508475E+00  0.100000000000000E+01  0.000000000000000E+00
 -0.105925053478478E+00 -0.100000000000000E+01  0.000000000000000E+00
 -0.105925053478478E+00 -0.955162973124140E+00  0.182614845178813E-01
 -0.105925053478478E+00 -0.848039647510822E+00  0.609949032422103E-01
 -0.105925053478478E+00 -0.741262543272473E+00  0.100828487852305E+00
 -0.105925053478478E+00 -0.635605065171759E+00  0.136060233674711E+00
 -0.105925053478478E+00 -0.529610856542781E+00  0.166274352211713E+00
 -0.105925053478478E+00 -0.423704436434061E+00  0.190870195513797E+00
 -0.105925053478478E+00 -0.317774315082929E+00  0.209775978467452E+00
 -0.105925053478478E+00 -0.211850529508475E+00  0.223087957057456E+00
 -0.105925053478478E+00 -0.105925053478478E+00  0.230979526044844E+00
 -0.105925053478478E+00 -0.790519978293986E-17  0.233592190137762E+00
 -0.105925053478478E+00  0.105925053478478E+00  0.230979526044844E+00
 -0.105925053478478E+00  0.211850529508475E+00  0.223087957057456E+00
 -0.105925053478478E+00  0.317774315082929E+00  0.209775978467451E+00
 -0.105925053478478E+00  0.423704436434061E+00  0.190870195513796E+00
 -0.105925053478478E+00  0.529610856542781E+00  0.166274352211712E+00
 -0.105925053478478E+00  0.635605065171759E+00  0.136060233674710E+00
 -0.105925053478478E+00  0.741262543272473E+00  0.100828487852305E+00
 -0.105925053478478E+00  0.848039647510822E+00  0.609949032422102E-01
 -0.105925053478478E+00  0.955162973124140E+00  0.182614845178813E-01
 -0.105925053478478E+00  0.100000000000000E+01  0.000000000000000E+00
 -0.790519978293986E-17 -0.100000000000000E+01  0.000000000000000E+00
 -0.790519978293986E-17 -0.955162973124140E+00  0.142070649036557E-01
 -0.790519978293986E-17 -0.848039647510822E+00  0.475251088063657E-01
 -0.790519978293986E-17 -0.741262543272473E+00  0.787905905057872E-01
 -0.790519978293986E-17 -0.635605065171759E+00  0.106725972947900E+00
 -0.790519978293986E-17 -0.529610856542781E+00  0.130974040436836E+00
 -0.790519978293986E-17 -0.423704436434061E+00  0.150961717285989E+00
 -0.790519978293986E-17 -0.317774315082929E+00  0.166503822031054E+00
 -0.790519978293986E-17 -0.211850529508475E+00  0.177551990288589E+00
 -0.790519978293986E-17 -0.105925053478478E+00  0.184145759595333E+00
 -0.790519978293986E-17 -0.790519978293986E-17  0.186336362539051E+00
 -0.790519978293986E-17  0.105925053478478E+00  0.184145759595333E+00
 -0.790519978293986E-17  0.211850529508475E+00  0.177551990288589E+00
 -0.790519978293986E-17  0.317774315082929E+00  0.166503822031054E+00
 -0.790519978293986E-17  0.423704436434061E+00  0.150961717285989E+00
 -0.790519978293986E-17  0.529610856542781E+00  0.130974040436836E+00
 -0.790519978293986E-17  0.635605065171759E+00  0.106725972947900E+00
 -0.790519978293986E-17  0.741262543272473E+00  0.787905905057870E-01
 -0.790519978293986E-17  0.848039647510822E+00  0.475251088063656E-01
 -0.790519978293986E-17  0.955162973124140E+00  0.142070649036557E-01
 -0.790519978293986E-17  0.100000000000000E+01  0.000000000000000E+00
  0.105925053478478E+00 -0.100000000000000E+01  0.000000000000000E+00
  0.105925053478478E+00 -0.955162973124140E+00  0.110015614000686E-01
  0.105925053478478E+00 -0.848039647510822E+00  0.368414341186444E-01
  0.105925053478478E+00 -0.741262543272473E+00  0.612038703051406E-01
  0.105925053478478E+00 -0.635605065171759E+00  0.831293322809557E-01
  0.105925053478478E+00 -0.529610856542781E+00  0.102328014647235E+00
  0.105925053478478E+00 -0.423704436434061E+00  0.118300226085039E+00
  0.105925053478478E+00 -0.317774315082929E+00  0.130828161949707E+00
  0.105925053478478E+00 -0.211850529508475E+00  0.139798599746285E+00
  0.105925053478478E+00 -0.105925053478478E+00  0.145180239508178E+00
  0.105925053478478E+00 -0.790519978293986E-17  0.146972988329482E+00
  0.105925053478478E+00  0.105925053478478E+00  0.145180239508178E+00
  0.105925053478478E+00  0.211850529508475E+00  0.139798599746285E+00
  0.105925053478478E+00  0.317774315082929E+00  0.130828161949707E+00
  0.105925053478478E+00  0.423704436434061E+00  0.118300226085039E+00
  0.105925053478478E+00  0.529610856542781E+00  0.102328014647235E+00
  0.105925053478478E+00  0.635605065171759E+00  0.831293322809555E-01
  0.105925053478478E+00  0.741262543272473E+00  0.612038703051405E-01
  0.105925053478478E+00  0.848039647510822E+00  0.368414341186443E-01
  0.105925053478478E+00  0.955162973124140E+00  0.110015614000686E-01
  0.105925053478478E+00  0.100000000000000E+01  0.000000000000000E+00
  0.211850529508475E+00 -0.100000000000000E+01  0.000000000000000E+00
  0.211850529508475E+00 -0.955162973124140E+00  0.845652766299881E-02
  0.211850529508475E+00 -0.848039647510822E+00  0.283403830451284E-01
  0.211850529508475E+00 -0.741262543272473E+00  0.471507890089782E-01
  0.211850529508475E+00 -0.635605065171759E+00  0.641683313900349E-01
  0.211850529508475E+00 -0.529610856542781E+00  0.791651793749383E-01
  0.211850529508475E+00 -0.423704436434061E+00  0.917273381640785E-01
  0.211850529508475E+00 -0.317774315082929E+00  0.101644931584835E+00
  0.211850529508475E+00 -0.211850529508475E+00  0.108785527928896E+00
  0.211850529508475E+00 -0.105925053478478E+00  0.113086476824365E+00
  0.211850529508475E+00 -0.790519978293986E-17  0.114522210260068E+00
  0.211850529508475E+00  0.105925053478478E+00  0.113086476824365E+00
  0.211850529508475E+00  0.211850529508475E+00  0.108785527928896E+00
  0.211850529508475E+00  0.317774315082929E+00  0.101644931584835E+00
  0.211850529508475E+00  0.423704436434061E+00  0.917273381640784E-01
  0.211850529508475E+00  0.529610856542781E+00  0.791651793749382E-01
  0.211850529508475E+00  0.635605065171759E+00  0.641683313900348E-01
  0.211850529508475E+00  0.741262543272473E+00  0.471507890089780E-01
  0.211850529508475E+00  0.848039647510822E+00  0.283403830451284E-01
  0.211850529508475E+00  0.955162973124140E+00  0.845652766299880E-02
  0.211850529508475E+00  0.100000000000000E+01  0.000000000000000E+00
  0.317774315082929E+00 -0.100000000000000E+01  0.000000000000000E+00
  0.317774315082929E+00 -0.955162973124140E+00  0.643291431886373E-02
  0.317774315082929E+00 -0.848039647510822E+00  0.215705839957336E-01
  0.317774315082929E+00 -0.741262543272473E+00  0.359262625177834E-01
  0.317774315082929E+00 -0.635605065171759E+00  0.489634277680295E-01
  0.317774315082929E+00 -0.529610856542781E+00  0.605068838872147E-01
  0.317774315082929E+00 -0.423704436434061E+00  0.702256104794357E-01
  0.317774315082929E+00 -0.317774315082929E+00  0.779359410413090E-01
  0.317774315082929E+00 -0.211850529508475E+00  0.835105175947463E-01
  0.317774315082929E+00 -0.105925053478478E+00  0.868784036969777E-01
  0.317774315082929E+00 -0.790519978293986E-17  0.880044549909099E-01
  0.317774315082929E+00  0.105925053478478E+00  0.868784036969778E-01
  0.317774315082929E+00  0.211850529508475E+00  0.835105175947464E-01
  0.317774315082929E+00  0.317774315082929E+00  0.779359410413090E-01
  0.317774315082929E+00  0.423704436434061E+00  0.702256104794356E-01
  0.317774315082929E+00  0.529610856542781E+00  0.605068838872146E-01
  0.317774315082929E+00  0.635605065171759E+00  0.489634277680294E-01
  0.317774315082929E+00  0.741262543272473E+00  0.359262625177833E-01
  0.317774315082929E+00  0.848039647510822E+00  0.215705839957335E-01
  0.317774315082929E+00  0.955162973124140E+00  0.643291431886372E-02
  0.317774315082929E+00  0.100000000000000E+01  0.000000000000000E+00
  0.423704436434061E+00 -0.100000000000000E+01  0.000000000000000E+00
  0.423704436434061E+00 -0.955162973124140E+00  0.482220982987839E-02
  0.423704436434061E+00 -0.848039647510822E+00  0.161761884775032E-01
  0.423704436434061E+00 -0.741262543272473E+00  0.269630425186616E-01
  0.423704436434061E+00 -0.635605065171759E+00  0.367867631855476E-01
  0.423704436434061E+00 -0.529610856542781E+00  0.455153606509868E-01
  0.423704436434061E+00 -0.423704436434061E+00  0.528920551715334E-01
  0.423704436434061E+00 -0.317774315082929E+00  0.587657826763006E-01
  0.423704436434061E+00 -0.211850529508475E+00  0.630258433033926E-01
  0.423704436434061E+00 -0.105925053478478E+00  0.656054652850210E-01
  0.423704436434061E+00 -0.790519978293986E-17  0.664690022343548E-01
  0.423704436434061E+00  0.105925053478478E+00  0.656054652850210E-01
  0.423704436434061E+00  0.211850529508475E+00  0.630258433033926E-01
  0.423704436434061E+00  0.317774315082929E+00  0.587657826763006E-01
  0.423704436434061E+00  0.423704436434061E+00  0.528920551715333E-01
  0.423704436434061E+00  0.529610856542781E+00  0.455153606509867E-01
  0.423704436434061E+00  0.635605065171759E+00  0.367867631855475E-01
  0.423704436434061E+00  0.741262543272473E+00  0.269630425186615E-01
  0.423704436434061E+00  0.848039647510822E+00  0.161761884775031E-01
  0.423704436434061E+00  0.955162973124140E+00  0.482220982987839E-02
  0.423704436434061E+00  0.100000000000000E+01  0.000000000000000E+00
  0.529610856542781E+00 -0.100000000000000E+01  0.000000000000000E+00
  0.529610856542781E+00 -0.955162973124140E+00  0.353651004178584E-02
  0.529610856542781E+00 -0.848039647510822E+00  0.118668009050301E-01
  0.529610856542781E+00 -0.741262543272473E+00  0.197914375532474E-01
  0.529610856542781E+00 -0.635605065171759E+00  0.270234177222589E-01
  0.529610856542781E+00 -0.529610856542781E+00  0.334657350989546E-01
  0.529610856542781E+00 -0.423704436434061E+00  0.389255153257546E-01
  0.529610856542781E+00 -0.317774315082929E+00  0.432847147769830E-01
  0.529610856542781E+00 -0.211850529508475E+00  0.464537335984509E-01
  0.529610856542781E+00 -0.105925053478478E+00  0.483759790408030E-01
  0.529610856542781E+00 -0.790519978293986E-17  0.490200389339150E-01
  0.529610856542781E+00  0.105925053478478E+00  0.483759790408031E-01
  0.529610856542781E+00  0.211850529508475E+00  0.464537335984509E-01
  0.529610856542781E+00  0.317774315082929E+00  0.432847147769829E-01
  0.529610856542781E+00  0.423704436434061E+00  0.389255153257545E-01
  0.529610856542781E+00  0.529610856542781E+00  0.334657350989545E-01
  0.529610856542781E+00  0.635605065171759E+00  0.270234177222589E-01
  0.529610856542781E+00  0.741262543272473E+00  0.197914375532473E-01
  0.529610856542781E+00  0.848039647510822E+00  0.118668009050301E-01
  0.529610856542781E+00  0.955162973124140E+00  0.353651004178583E-02
  0.529610856542781E+00  0.100000000000000E+01  0.000000000000000E+00
  0.635605065171759E+00 -0.100000000000000E+01  0.000000000000000E+00
  0.635605065171759E+00 -0.955162973124140E+00  0.250012068146352E-02
  0.635605065171759E+00 -0.848039647510822E+00  0.839097786371680E-02
  0.635605065171759E+00 -0.741262543272473E+00  0.140003086778456E-01
  0.635605065171759E+00 -0.635605065171759E+00  0.191270037292054E-01
  0.635605065171759E+00 -0.529610856542781E+00  0.237024324168108E-01
  0.635605065171759E+00 -0.423704436434061E+00  0.275879475800421E-01
  0.635605065171759E+00 -0.317774315082929E+00  0.306963700813862E-01
  0.635605065171759E+00 -0.211850529508475E+00  0.329599750450305E-01
  0.635605065171759E+00 -0.105925053478478E+00  0.343347423944356E-01
  0.635605065171759E+00 -0.790519978293986E-17  0.347956717955466E-01
  0.635605065171759E+00  0.105925053478478E+00  0.343347423944357E-01
  0.635605065171759E+00  0.211850529508475E+00  0.329599750450305E-01
  0.635605065171759E+00  0.317774315082929E+00  0.306963700813862E-01
  0.635605065171759E+00  0.423704436434061E+00  0.275879475800421E-01
  0.635605065171759E+00  0.529610856542781E+00  0.237024324168108E-01
  0.635605065171759E+00  0.635605065171759E+00  0.191270037292054E-01
  0.635605065171759E+00  0.741262543272473E+00  0.140003086778456E-01
  0.635605065171759E+00  0.848039647510822E+00  0.839097786371678E-02
  0.635605065171759E+00  0.955162973124140E+00  0.250012068146351E-02
  0.635605065171759E+00  0.100000000000000E+01  0.000000000000000E+00
  0.741262543272473E+00 -0.100000000000000E+01  0.000000000000000E+00
  0.741262543272473E+00 -0.955162973124140E+00  0.165164600505645E-02
  0.741262543272473E+00 -0.848039647510822E+00  0.554412079688614E-02
  0.741262543272473E+00 -0.741262543272473E+00  0.925301064732880E-02
  0.741262543272473E+00 -0.635605065171759E+00  0.126462843779378E-01
  0.741262543272473E+00 -0.529610856542781E+00  0.156785957889481E-01
  0.741262543272473E+00 -0.423704436434061E+00  0.182573132452493E-01
  0.741262543272473E+00 -0.317774315082929E+00  0.203231346914751E-01
  0.741262543272473E+00 -0.211850529508475E+00  0.218292916073314E-01
  0.741262543272473E+00 -0.105925053478478E+00  0.227448336871451E-01
  0.741262543272473E+00 -0.790519978293986E-17  0.230519368157459E-01
  0.741262543272473E+00  0.105925053478478E+00  0.227448336871451E-01
  0.741262543272473E+00  0.211850529508475E+00  0.218292916073314E-01
  0.741262543272473E+00  0.317774315082929E+00  0.203231346914751E-01
  0.741262543272473E+00  0.423704436434061E+00  0.182573132452492E-01
  0.741262543272473E+00  0.529610856542781E+00  0.156785957889480E-01
  0.741262543272473E+00  0.635605065171759E+00  0.126462843779378E-01
  0.741262543272473E+00  0.741262543272473E+00  0.925301064732877E-02
  0.741262543272473E+00  0.848039647510822E+00  0.554412079688613E-02
  0.741262543272473E+00  0.955162973124140E+00  0.165164600505645E-02
  0.741262543272473E+00  0.100000000000000E+01  0.000000000000000E+00
  0.848039647510822E+00 -0.100000000000000E+01  0.000000000000000E+00
  0.848039647510822E+00 -0.955162973124140E+00  0.922509102992534E-03
  0.848039647510822E+00 -0.848039647510822E+00  0.309689861247519E-02
  0.848039647510822E+00 -0.741262543272473E+00  0.516959850159721E-02
  0.848039647510822E+00 -0.635605065171759E+00  0.706715963898292E-02
  0.848039647510822E+00 -0.529610856542781E+00  0.876425578195373E-02
  0.848039647510822E+00 -0.423704436434061E+00  0.102087835819612E-01
  0.848039647510822E+00 -0.317774315082929E+00  0.113670138971170E-01
  0.848039647510822E+00 -0.211850529508475E+00  0.122121007180264E-01
  0.848039647510822E+00 -0.105925053478478E+00  0.127260865544027E-01
  0.848039647510822E+00 -0.790519978293986E-17  0.128985452098016E-01
  0.848039647510822E+00  0.105925053478478E+00  0.127260865544027E-01
  0.848039647510822E+00  0.211850529508475E+00  0.122121007180264E-01
  0.848039647510822E+00  0.317774315082929E+00  0.113670138971169E-01
  0.848039647510822E+00  0.423704436434061E+00  0.102087835819612E-01
  0.848039647510822E+00  0.529610856542781E+00  0.876425578195371E-02
  0.848039647510822E+00  0.635605065171759E+00  0.706715963898290E-02
  0.848039647510822E+00  0.741262543272473E+00  0.516959850159719E-02
  0.848039647510822E+00  0.848039647510822E+00  0.309689861247518E-02
  0.848039647510822E+00  0.955162973124140E+00  0.922509102992533E-03
  0.848039647510822E+00  0.100000000000000E+01  0.000000000000000E+00
  0.955162973124140E+00 -0.100000000000000E+01  0.000000000000000E+00
  0.955162973124140E+00 -0.955162973124140E+00  0.265525564514643E-03
  0.955162973124140E+00 -0.848039647510822E+00  0.891417944323015E-03
  0.955162973124140E+00 -0.741262543272473E+00  0.148815375550180E-02
  0.955162973124140E+00 -0.635605065171759E+00  0.203463157620381E-02
  0.955162973124140E+00 -0.529610856542781E+00  0.252356229853655E-02
  0.955162973124140E+00 -0.423704436434061E+00  0.293990085769612E-02
  0.955162973124140E+00 -0.317774315082929E+00  0.327385842767573E-02
  0.955162973124140E+00 -0.211850529508475E+00  0.351761137167361E-02
  0.955162973124140E+00 -0.105925053478478E+00  0.366590127905883E-02
  0.955162973124140E+00 -0.790519978293986E-17  0.371566406398580E-02
  0.955162973124140E+00  0.105925053478478E+00  0.366590127905883E-02
  0.955162973124140E+00  0.211850529508475E+00  0.351761137167361E-02
  0.955162973124140E+00  0.317774315082929E+00  0.327385842767573E-02
  0.955162973124140E+00  0.423704436434061E+00  0.293990085769611E-02
  0.955162973124140E+00  0.529610856542781E+00  0.252356229853654E-02
  0.955162973124140E+00  0.635605065171759E+00  0.203463157620380E-02
  0.955162973124140E+00  0.741262543272473E+00  0.148815375550180E-02
  0.955162973124140E+00  0.848039647510822E+00  0.891417944323013E-03
  0.955162973124140E+00  0.955162973124140E+00  0.265525564514643E-03
  0.955162973124140E+00  0.100000000000000E+01  0.000000000000000E+00
  0.100000000000000E+01 -0.100000000000000E+01  0.000000000000000E+00
  0.100000000000000E+01 -0.955162973124140E+00  0.000000000000000E+00
  0.100000000000000E+01 -0.848039647510822E+00  0.000000000000000E+00
  0.100000000000000E+01 -0.741262543272473E+00  0.000000000000000E+00
  0.100000000000000E+01 -0.635605065171759E+00  0.000000000000000E+00
  0.100000000000000E+01 -0.529610856542781E+00  0.000000000000000E+00
  0.100000000000000E+01 -0.423704436434061E+00  0.000000000000000E+00