 VARIABLES =  $x$  (a)
 ZONE I=         441 ,DATAPACKING=POINT
 -0.100000000000000E+01 -0.100000000000000E+01  0.100000000000000E+01
 -0.100000000000000E+01 -0.955162973124140E+00  0.100000000000000E+01
 -0.100000000000000E+01 -0.848039647510822E+00  0.100000000000000E+01
 -0.100000000000000E+01 -0.741262543272473E+00  0.100000000000000E+01
 -0.100000000000000E+01 -0.635605065171759E+00  0.100000000000000E+01
 -0.100000000000000E+01 -0.529610856542781E+00  0.100000000000000E+01
 -0.100000000000000E+01 -0.423704436434061E+00  0.100000000000000E+01
 -0.100000000000000E+01 -0.317774315082929E+00  0.100000000000000E+01
 -0.100000000000000E+01 -0.211850529508475E+00  0.100000000000000E+01
 -0.100000000000000E+01 -0.105925053478478E+00  0.100000000000000E+01
 -0.100000000000000E+01 -0.790519978293986E-17  0.100000000000000E+01
 -0.100000000000000E+01  0.105925053478478E+00  0.100000000000000E+01
 -0.100000000000000E+01  0.211850529508475E+00  0.100000000000000E+01
 -0.100000000000000E+01  0.317774315082929E+00  0.100000000000000E+01
 -0.100000000000000E+01  0.423704436434061E+00  0.100000000000000E+01
 -0.100000000000000E+01  0.529610856542781E+00  0.100000000000000E+01
 -0.100000000000000E+01  0.635605065171759E+00  0.100000000000000E+01
 -0.100000000000000E+01  0.741262543272473E+00  0.100000000000000E+01
 -0.100000000000000E+01  0.848039647510822E+00  0.100000000000000E+01
 -0.100000000000000E+01  0.955162973124140E+00  0.100000000000000E+01
 -0.100000000000000E+01  0.100000000000000E+01  0.100000000000000E+01
 -0.955162973124140E+00 -0.100000000000000E+01  0.681661727596084E+00
 -0.955162973124140E+00 -0.955162973124140E+00  0.795285352200137E+00
 -0.955162973124140E+00 -0.848039647510822E+00  0.881087628544280E+00
 -0.955162973124140E+00 -0.741262543272473E+00  0.905833165302568E+00
 -0.955162973124140E+00 -0.635605065171759E+00  0.916544012793435E+00
 -0.955162973124140E+00 -0.529610856542781E+00  0.922060311093026E+00
 -0.955162973124140E+00 -0.423704436434061E+00  0.925022376722144E+00
 -0.955162973124140E+00 -0.317774315082929E+00  0.926631150066291E+00
 -0.955162973124140E+00 -0.211850529508475E+00  0.927486302665204E+00
 -0.955162973124140E+00 -0.105925053478478E+00  0.927899642039828E+00
 -0.955162973124140E+00 -0.790519978293986E-17  0.928022330663222E+00
 -0.955162973124140E+00  0.105925053478478E+00  0.927899642039829E+00
 -0.955162973124140E+00  0.211850529508475E+00  0.927486302665205E+00
 -0.955162973124140E+00  0.317774315082929E+00  0.926631150066291E+00
 -0.955162973124140E+00  0.423704436434061E+00  0.925022376722144E+00
 -0.955162973124140E+00  0.529610856542781E+00  0.922060311093025E+00
 -0.955162973124140E+00  0.635605065171759E+00  0.916544012793435E+00
 -0.955162973124140E+00  0.741262543272473E+00  0.905833165302568E+00
 -0.955162973124140E+00  0.848039647510822E+00  0.881087628544280E+00
 -0.955162973124140E+00  0.955162973124140E+00  0.795285352200137E+00
 -0.955162973124140E+00  0.100000000000000E+01  0.681661727596085E+00
 -0.848039647510822E+00 -0.100000000000000E+01  0.421507930199094E+00
 -0.848039647510822E+00 -0.955162973124140E+00  0.504928996672743E+00
 -0.848039647510822E+00 -0.848039647510822E+00  0.632032507824117E+00
 -0.848039647510822E+00 -0.741262543272473E+00  0.693510633553831E+00
 -0.848039647510822E+00 -0.635605065171759E+00  0.724406423268237E+00
 -0.848039647510822E+00 -0.529610856542781E+00  0.741005361540908E+00
 -0.848039647510822E+00 -0.423704436434061E+00  0.750113872086164E+00
 -0.848039647510822E+00 -0.317774315082929E+00  0.755130623222921E+00
 -0.848039647510822E+00 -0.211850529508475E+00  0.757821629144545E+00
 -0.848039647510822E+00 -0.105925053478478E+00  0.759129601433064E+00
 -0.848039647510822E+00 -0.790519978293986E-17  0.759518888723204E+00
 -0.848039647510822E+00  0.105925053478478E+00  0.759129601433065E+00
 -0.848039647510822E+00  0.211850529508475E+00  0.757821629144546E+00
 -0.848039647510822E+00  0.317774315082929E+00  0.755130623222921E+00
 -0.848039647510822E+00  0.423704436434061E+00  0.750113872086164E+00
 -0.848039647510822E+00  0.529610856542781E+00  0.741005361540908E+00
 -0.848039647510822E+00  0.635605065171759E+00  0.724406423268236E+00
 -0.848039647510822E+00  0.741262543272473E+00  0.693510633553831E+00
 -0.848039647510822E+00  0.848039647510822E+00  0.632032507824118E+00
 -0.848039647510822E+00  0.955162973124140E+00  0.504928996672744E+00
 -0.848039647510822E+00  0.100000000000000E+01  0.421507930199094E+00
 -0.741262543272473E+00 -0.100000000000000E+01  0.282608104230271E+00
 -0.741262543272473E+00 -0.955162973124140E+00  0.341763722277539E+00
 -0.741262543272473E+00 -0.848039647510822E+00  0.449577412153117E+00
 -0.741262543272473E+00 -0.741262543272473E+00  0.515457969085052E+00
 -0.741262543272473E+00 -0.635605065171759E+00  0.553667276568294E+00
 -0.741262543272473E+00 -0.529610856542781E+00  0.575877462325346E+00
 -0.741262543272473E+00 -0.423704436434061E+00  0.588625581819088E+00
 -0.741262543272473E+00 -0.317774315082929E+00  0.595842085812226E+00
 -0.741262543272473E+00 -0.211850529508475E+00  0.599781140193584E+00
 -0.741262543272473E+00 -0.105925053478478E+00  0.601716389856757E+00
 -0.741262543272473E+00 -0.790519978293986E-17  0.602295393317530E+00
 -0.741262543272473E+00  0.105925053478478E+00  0.601716389856757E+00
 -0.741262543272473E+00  0.211850529508475E+00  0.599781140193585E+00
 -0.741262543272473E+00  0.317774315082929E+00  0.595842085812225E+00
 -0.741262543272473E+00  0.423704436434061E+00  0.588625581819087E+00
 -0.741262543272473E+00  0.529610856542781E+00  0.575877462325345E+00
 -0.741262543272473E+00  0.635605065171759E+00  0.553667276568294E+00
 -0.741262543272473E+00  0.741262543272473E+00  0.515457969085053E+00
 -0.741262543272473E+00  0.848039647510822E+00  0.449577412153117E+00
 -0.741262543272473E+00  0.955162973124140E+00  0.341763722277540E+00
 -0.741262543272473E+00  0.100000000000000E+01  0.282608104230272E+00
 -0.635605065171759E+00 -0.100000000000000E+01  0.194935332167776E+00
 -0.635605065171759E+00 -0.955162973124140E+00  0.236626642639132E+00
 -0.635605065171759E+00 -0.848039647510822E+00  0.318572986032424E+00
 -0.635605065171759E+00 -0.741262543272473E+00  0.375211267454918E+00
 -0.635605065171759E+00 -0.635605065171759E+00  0.411524145572890E+00
 -0.635605065171759E+00 -0.529610856542781E+00  0.434180065697821E+00
 -0.635605065171759E+00 -0.423704436434061E+00  0.447824374019195E+00
 -0.635605065171759E+00 -0.317774315082929E+00  0.455803026073375E+00
 -0.635605065171759E+00 -0.211850529508475E+00  0.460254320431100E+00
 -0.635605065171759E+00 -0.105925053478478E+00  0.462471809328980E+00
 -0.635605065171759E+00 -0.790519978293986E-17  0.463139835254265E+00
 -0.635605065171759E+00  0.105925053478478E+00  0.462471809328981E+00
 -0.635605065171759E+00  0.211850529508475E+00  0.460254320431100E+00
 -0.635605065171759E+00  0.317774315082929E+00  0.455803026073375E+00
 -0.635605065171759E+00  0.423704436434061E+00  0.447824374019195E+00
 -0.635605065171759E+00  0.529610856542781E+00  0.434180065697821E+00
 -0.635605065171759E+00  0.635605065171759E+00  0.411524145572890E+00
 -0.635605065171759E+00  0.741262543272473E+00  0.375211267454918E+00
 -0.635605065171759E+00  0.848039647510822E+00  0.318572986032425E+00
 -0.635605065171759E+00  0.955162973124140E+00  0.236626642639133E+00
 -0.635605065171759E+00  0.100000000000000E+01  0.194935332167776E+00
 -0.529610856542781E+00 -0.100000000000000E+01  0.134080012379843E+00
 -0.529610856542781E+00 -0.955162973124140E+00  0.163057403778389E+00
 -0.529610856542781E+00 -0.848039647510822E+00  0.222345154875905E+00
 -0.529610856542781E+00 -0.741262543272473E+00  0.266343131861810E+00
 -0.529610856542781E+00 -0.635605065171759E+00  0.296544610780558E+00
 -0.529610856542781E+00 -0.529610856542781E+00  0.316478669940918E+00
 -0.529610856542781E+00 -0.423704436434061E+00  0.329016044349030E+00
 -0.529610856542781E+00 -0.317774315082929E+00  0.336587067730209E+00
 -0.529610856542781E+00 -0.211850529508475E+00  0.340909538157660E+00
 -0.529610856542781E+00 -0.105925053478478E+00  0.343095929950155E+00
 -0.529610856542781E+00 -0.790519978293986E-17  0.343759686605478E+00
 -0.529610856542781E+00  0.105925053478478E+00  0.343095929950156E+00
 -0.529610856542781E+00  0.211850529508475E+00  0.340909538157660E+00
 -0.529610856542781E+00  0.317774315082929E+00  0.336587067730209E+00
 -0.529610856542781E+00  0.423704436434061E+00  0.329016044349029E+00
 -0.529610856542781E+00  0.529610856542781E+00  0.316478669940918E+00
 -0.529610856542781E+00  0.635605065171759E+00  0.296544610780558E+00
 -0.529610856542781E+00  0.741262543272473E+00  0.266343131861810E+00
 -0.529610856542781E+00  0.848039647510822E+00  0.222345154875905E+00
 -0.529610856542781E+00  0.955162973124140E+00  0.163057403778389E+00
 -0.529610856542781E+00  0.100000000000000E+01  0.134080012379843E+00
 -0.423704436434061E+00 -0.100000000000000E+01  0.908895797823125E-01
 -0.423704436434061E+00 -0.955162973124140E+00  0.110649568167099E+00
 -0.423704436434061E+00 -0.848039647510822E+00  0.152057600172959E+00
 -0.423704436434061E+00 -0.741262543272473E+00  0.184166794606469E+00
 -0.423704436434061E+00 -0.635605065171759E+00  0.207258411083213E+00
 -0.423704436434061E+00 -0.529610856542781E+00  0.223164018335135E+00
 -0.423704436434061E+00 -0.423704436434061E+00  0.233535470598592E+00
 -0.423704436434061E+00 -0.317774315082929E+00  0.239982087212558E+00
 -0.423704436434061E+00 -0.211850529508475E+00  0.243744192543108E+00
 -0.423704436434061E+00 -0.105925053478478E+00  0.245675979465661E+00
 -0.423704436434061E+00 -0.790519978293986E-17  0.246267015109308E+00
 -0.423704436434061E+00  0.105925053478478E+00  0.245675979465661E+00
 -0.423704436434061E+00  0.211850529508475E+00  0.243744192543108E+00
 -0.423704436434061E+00  0.317774315082929E+00  0.239982087212558E+00
 -0.423704436434061E+00  0.423704436434061E+00  0.233535470598592E+00
 -0.423704436434061E+00  0.529610856542781E+00  0.223164018335135E+00
 -0.423704436434061E+00  0.635605065171759E+00  0.207258411083213E+00
 -0.423704436434061E+00  0.741262543272473E+00  0.184166794606469E+00
 -0.423704436434061E+00  0.848039647510822E+00  0.152057600172959E+00
 -0.423704436434061E+00  0.955162973124140E+00  0.110649568167100E+00
 -0.423704436434061E+00  0.100000000000000E+01  0.908895797823128E-01
 -0.317774315082929E+00 -0.100000000000000E+01  0.602254866125596E-01
 -0.317774315082929E+00 -0.955162973124140E+00  0.733678561027028E-01
 -0.317774315082929E+00 -0.848039647510822E+00  0.101337311371927E+00
 -0.317774315082929E+00 -0.741262543272473E+00  0.123661337669310E+00
 -0.317774315082929E+00 -0.635605065171759E+00  0.140247333985780E+00
 -0.317774315082929E+00 -0.529610856542781E+00  0.152044089385629E+00
 -0.317774315082929E+00 -0.423704436434061E+00  0.159963284838045E+00
 -0.317774315082929E+00 -0.317774315082929E+00  0.165008775845132E+00
 -0.317774315082929E+00 -0.211850529508475E+00  0.168011669369995E+00
 -0.317774315082929E+00 -0.105925053478478E+00  0.169575247265892E+00
 -0.317774315082929E+00 -0.790519978293986E-17  0.170057147795671E+00
 -0.317774315082929E+00  0.105925053478478E+00  0.169575247265893E+00
 -0.317774315082929E+00  0.211850529508475E+00  0.168011669369996E+00
 -0.317774315082929E+00  0.317774315082929E+00  0.165008775845132E+00
 -0.317774315082929E+00  0.423704436434061E+00  0.159963284838045E+00
 -0.317774315082929E+00  0.529610856542781E+00  0.152044089385629E+00
 -0.317774315082929E+00  0.635605065171759E+00  0.140247333985780E+00
 -0.317774315082929E+00  0.741262543272473E+00  0.123661337669310E+00
 -0.317774315082929E+00  0.848039647510822E+00  0.101337311371927E+00
 -0.317774315082929E+00  0.955162973124140E+00  0.733678561027030E-01
 -0.317774315082929E+00  0.100000000000000E+01  0.602254866125598E-01
 -0.211850529508475E+00 -0.100000000000000E+01  0.388154654378529E-01
 -0.211850529508475E+00 -0.955162973124140E+00  0.473070183834394E-01
 -0.211850529508475E+00 -0.848039647510822E+00  0.655703282569073E-01
 -0.211850529508475E+00 -0.741262543272473E+00  0.804408608172561E-01
 -0.211850529508475E+00 -0.635605065171759E+00  0.917506292087733E-01
 -0.211850529508475E+00 -0.529610856542781E+00  0.999918846934260E-01
 -0.211850529508475E+00 -0.423704436434061E+00  0.105653710341386E+00
 -0.211850529508475E+00 -0.317774315082929E+00  0.109336033904058E+00
 -0.211850529508475E+00 -0.211850529508475E+00  0.111565236314849E+00
 -0.211850529508475E+00 -0.105925053478478E+00  0.112740434174277E+00
 -0.211850529508475E+00 -0.790519978293986E-17  0.113105040579579E+00
 -0.211850529508475E+00  0.105925053478478E+00  0.112740434174277E+00
 -0.211850529508475E+00  0.211850529508475E+00  0.111565236314849E+00
 -0.211850529508475E+00  0.317774315082929E+00  0.109336033904058E+00
 -0.211850529508475E+00  0.423704436434061E+00  0.105653710341386E+00
 -0.211850529508475E+00  0.529610856542781E+00  0.999918846934259E-01
 -0.211850529508475E+00  0.635605065171759E+00  0.917506292087733E-01
 -0.211850529508475E+00  0.741262543272473E+00  0.804408608172561E-01
 -0.211850529508475E+00  0.848039647510822E+00  0.655703282569074E-01
 -0.211850529508475E+00  0.955162973124140E+00  0.473070183834396E-01
 -0.211850529508475E+00  0.100000000000000E+01  0.388154654378530E-01
 -0.105925053478478E+00 -0.100000000000000E+01  0.242459712171650E-01
 -0.105925053478478E+00 -0.955162973124140E+00  0.295595800476502E-01
 -0.105925053478478E+00 -0.848039647510822E+00  0.410740761277784E-01
 -0.105925053478478E+00 -0.741262543272473E+00  0.505846339282061E-01
 -0.105925053478478E+00 -0.635605065171759E+00  0.579437023309566E-01
 -0.105925053478478E+00 -0.529610856542781E+00  0.634063380322797E-01
 -0.105925053478478E+00 -0.423704436434061E+00  0.672288086412684E-01
 -0.105925053478478E+00 -0.317774315082929E+00  0.697573797053602E-01
 -0.105925053478478E+00 -0.211850529508475E+00  0.713103955544412E-01
 -0.105925053478478E+00 -0.105925053478478E+00  0.721379662793832E-01
 -0.105925053478478E+00 -0.790519978293986E-17  0.723962182382933E-01
 -0.105925053478478E+00  0.105925053478478E+00  0.721379662793833E-01
 -0.105925053478478E+00  0.211850529508475E+00  0.713103955544413E-01
 -0.105925053478478E+00  0.317774315082929E+00  0.697573797053602E-01
 -0.105925053478478E+00  0.423704436434061E+00  0.672288086412683E-01
 -0.105925053478478E+00  0.529610856542781E+00  0.634063380322797E-01
 -0.105925053478478E+00  0.635605065171759E+00  0.579437023309566E-01
 -0.105925053478478E+00  0.741262543272473E+00  0.505846339282061E-01
 -0.105925053478478E+00  0.848039647510822E+00  0.410740761277785E-01
 -0.105925053478478E+00  0.955162973124140E+00  0.295595800476503E-01
 -0.105925053478478E+00  0.100000000000000E+01  0.242459712171650E-01
 -0.790519978293986E-17 -0.100000000000000E+01  0.146409469707002E-01
 -0.790519978293986E-17 -0.955162973124140E+00  0.178537245081570E-01
 -0.790519978293986E-17 -0.848039647510822E+00  0.248543824372890E-01
 -0.790519978293986E-17 -0.741262543272473E+00  0.306982716018825E-01
 -0.790519978293986E-17 -0.635605065171759E+00  0.352794081014614E-01
 -0.790519978293986E-17 -0.529610856542781E+00  0.387291285144516E-01
 -0.790519978293986E-17 -0.423704436434061E+00  0.411787083227360E-01
 -0.790519978293986E-17 -0.317774315082929E+00  0.428218132786718E-01
 -0.790519978293986E-17 -0.211850529508475E+00  0.438433056256184E-01
 -0.790519978293986E-17 -0.105925053478478E+00  0.443926596682977E-01
 -0.790519978293986E-17 -0.790519978293986E-17  0.445649534539599E-01
 -0.790519978293986E-17  0.105925053478478E+00  0.443926596682978E-01
 -0.790519978293986E-17  0.211850529508475E+00  0.438433056256185E-01
 -0.790519978293986E-17  0.317774315082929E+00  0.428218132786718E-01
 -0.790519978293986E-17  0.423704436434061E+00  0.411787083227359E-01
 -0.790519978293986E-17  0.529610856542781E+00  0.387291285144516E-01
 -0.790519978293986E-17  0.635605065171759E+00  0.352794081014614E-01
 -0.790519978293986E-17  0.741262543272473E+00  0.306982716018825E-01
 -0.790519978293986E-17  0.848039647510822E+00  0.248543824372891E-01
 -0.790519978293986E-17  0.955162973124140E+00  0.178537245081570E-01
 -0.790519978293986E-17  0.100000000000000E+01  0.146409469707002E-01
  0.105925053478478E+00 -0.100000000000000E+01  0.852987467918143E-02
  0.105925053478478E+00 -0.955162973124140E+00  0.104034758203963E-01
  0.105925053478478E+00 -0.848039647510822E+00  0.145031943187502E-01
  0.105925053478478E+00 -0.741262543272473E+00  0.179531646177756E-01
  0.105925053478478E+00 -0.635605065171759E+00  0.206849468822507E-01
  0.105925053478478E+00 -0.529610856542781E+00  0.227653910004641E-01
  0.105925053478478E+00 -0.423704436434061E+00  0.242601808505141E-01
  0.105925053478478E+00 -0.317774315082929E+00  0.252743633932858E-01
  0.105925053478478E+00 -0.211850529508475E+00  0.259112950256469E-01
  0.105925053478478E+00 -0.105925053478478E+00  0.262565102234391E-01
  0.105925053478478E+00 -0.790519978293986E-17  0.263652448518883E-01
  0.105925053478478E+00  0.105925053478478E+00  0.262565102234391E-01
  0.105925053478478E+00  0.211850529508475E+00  0.259112950256470E-01
  0.105925053478478E+00  0.317774315082929E+00  0.252743633932858E-01
  0.105925053478478E+00  0.423704436434061E+00  0.242601808505141E-01
  0.105925053478478E+00  0.529610856542781E+00  0.227653910004641E-01
  0.105925053478478E+00  0.635605065171759E+00  0.206849468822507E-01
  0.105925053478478E+00  0.741262543272473E+00  0.179531646177756E-01
  0.105925053478478E+00  0.848039647510822E+00  0.145031943187503E-01
  0.105925053478478E+00  0.955162973124140E+00  0.104034758203964E-01
  0.105925053478478E+00  0.100000000000000E+01  0.852987467918146E-02
  0.211850529508475E+00 -0.100000000000000E+01  0.478727519641551E-02
  0.211850529508475E+00 -0.955162973124140E+00  0.583959905189210E-02
  0.211850529508475E+00 -0.848039647510822E+00  0.814972091409913E-02
  0.211850529508475E+00 -0.741262543272473E+00  0.101059265047054E-01
  0.211850529508475E+00 -0.635605065171759E+00  0.116671650083922E-01
  0.211850529508475E+00 -0.529610856542781E+00  0.128668992912789E-01
  0.211850529508475E+00 -0.423704436434061E+00  0.137371762998201E-01
  0.211850529508475E+00 -0.317774315082929E+00  0.143332285554887E-01
  0.211850529508475E+00 -0.211850529508475E+00  0.147107536636377E-01
  0.211850529508475E+00 -0.105925053478478E+00  0.149167208561673E-01
  0.211850529508475E+00 -0.790519978293986E-17  0.149818322499549E-01
  0.211850529508475E+00  0.105925053478478E+00  0.149167208561673E-01
  0.211850529508475E+00  0.211850529508475E+00  0.147107536636377E-01
  0.211850529508475E+00  0.317774315082929E+00  0.143332285554887E-01
  0.211850529508475E+00  0.423704436434061E+00  0.137371762998201E-01
  0.211850529508475E+00  0.529610856542781E+00  0.128668992912789E-01
  0.211850529508475E+00  0.635605065171759E+00  0.116671650083921E-01
  0.211850529508475E+00  0.741262543272473E+00  0.101059265047054E-01
  0.211850529508475E+00  0.848039647510822E+00  0.814972091409914E-02
  0.211850529508475E+00  0.955162973124140E+00  0.583959905189212E-02
  0.211850529508475E+00  0.100000000000000E+01  0.478727519641553E-02
  0.317774315082929E+00 -0.100000000000000E+01  0.258499998562316E-02
  0.317774315082929E+00 -0.955162973124140E+00  0.315356331662668E-02
  0.317774315082929E+00 -0.848039647510822E+00  0.440490773288783E-02
  0.317774315082929E+00 -0.741262543272473E+00  0.546980806097429E-02
  0.317774315082929E+00 -0.635605065171759E+00  0.632506693027842E-02
  0.317774315082929E+00 -0.529610856542781E+00  0.698708236910978E-02
  0.317774315082929E+00 -0.423704436434061E+00  0.747107115833091E-02
  0.317774315082929E+00 -0.317774315082929E+00  0.780515331294752E-02
  0.317774315082929E+00 -0.211850529508475E+00  0.801826292566614E-02
  0.317774315082929E+00 -0.105925053478478E+00  0.813517704527402E-02
  0.317774315082929E+00 -0.790519978293986E-17  0.817225085880141E-02
  0.317774315082929E+00  0.105925053478478E+00  0.813517704527403E-02
  0.317774315082929E+00  0.211850529508475E+00  0.801826292566614E-02
  0.317774315082929E+00  0.317774315082929E+00  0.780515331294752E-02
  0.317774315082929E+00  0.423704436434061E+00  0.747107115833091E-02
  0.317774315082929E+00  0.529610856542781E+00  0.698708236910978E-02
  0.317774315082929E+00  0.635605065171759E+00  0.632506693027842E-02
  0.317774315082929E+00  0.741262543272473E+00  0.546980806097429E-02
  0.317774315082929E+00  0.848039647510822E+00  0.440490773288784E-02
  0.317774315082929E+00  0.955162973124140E+00  0.315356331662669E-02
  0.317774315082929E+00  0.100000000000000E+01  0.258499998562317E-02
  0.423704436434061E+00 -0.100000000000000E+01  0.134139450345126E-02
  0.423704436434061E+00 -0.955162973124140E+00  0.163657057081366E-02
  0.423704436434061E+00 -0.848039647510822E+00  0.228755850046665E-02
  0.423704436434061E+00 -0.741262543272473E+00  0.284376720994776E-02
  0.423704436434061E+00 -0.635605065171759E+00  0.329276218330284E-02
  0.423704436434061E+00 -0.529610856542781E+00  0.364237814239476E-02
  0.423704436434061E+00 -0.423704436434061E+00  0.389963235582560E-02
  0.423704436434061E+00 -0.317774315082929E+00  0.407836747969226E-02
  0.423704436434061E+00 -0.211850529508475E+00  0.419306614025387E-02
  0.423704436434061E+00 -0.105925053478478E+00  0.425628750257326E-02
  0.423704436434061E+00 -0.790519978293986E-17  0.427638784292905E-02
  0.423704436434061E+00  0.105925053478478E+00  0.425628750257327E-02
  0.423704436434061E+00  0.211850529508475E+00  0.419306614025387E-02
  0.423704436434061E+00  0.317774315082929E+00  0.407836747969226E-02
  0.423704436434061E+00  0.423704436434061E+00  0.389963235582559E-02
  0.423704436434061E+00  0.529610856542781E+00  0.364237814239475E-02
  0.423704436434061E+00  0.635605065171759E+00  0.329276218330284E-02
  0.423704436434061E+00  0.741262543272473E+00  0.284376720994776E-02
  0.423704436434061E+00  0.848039647510822E+00  0.228755850046665E-02
  0.423704436434061E+00  0.955162973124140E+00  0.163657057081366E-02
  0.423704436434061E+00  0.100000000000000E+01  0.134139450345127E-02
  0.529610856542781E+00 -0.100000000000000E+01  0.668291651210596E-03
  0.529610856542781E+00 -0.955162973124140E+00  0.815407179530933E-03
  0.529610856542781E+00 -0.848039647510822E+00  0.114040353080778E-02
  0.529610856542781E+00 -0.741262543272473E+00  0.141898825074327E-02
  0.529610856542781E+00 -0.635605065171759E+00  0.164481627626645E-02
  0.529610856542781E+00 -0.529610856542781E+00  0.182152513455508E-02
  0.529610856542781E+00 -0.423704436434061E+00  0.195225197945004E-02
  0.529610856542781E+00 -0.317774315082929E+00  0.204357644865038E-02
  0.529610856542781E+00 -0.211850529508475E+00  0.210247861152673E-02
  0.529610856542781E+00 -0.105925053478478E+00  0.213507500583003E-02
  0.529610856542781E+00 -0.790519978293986E-17  0.214546172703154E-02
  0.529610856542781E+00  0.105925053478478E+00  0.213507500583003E-02
  0.529610856542781E+00  0.211850529508475E+00  0.210247861152673E-02
  0.529610856542781E+00  0.317774315082929E+00  0.204357644865038E-02
  0.529610856542781E+00  0.423704436434061E+00  0.195225197945004E-02
  0.529610856542781E+00  0.529610856542781E+00  0.182152513455508E-02
  0.529610856542781E+00  0.635605065171759E+00  0.164481627626645E-02
  0.529610856542781E+00  0.741262543272473E+00  0.141898825074327E-02
  0.529610856542781E+00  0.848039647510822E+00  0.114040353080778E-02
  0.529610856542781E+00  0.955162973124140E+00  0.815407179530936E-03
  0.529610856542781E+00  0.100000000000000E+01  0.668291651210598E-03
  0.635605065171759E+00 -0.100000000000000E+01  0.318770344661095E-03
  0.635605065171759E+00 -0.955162973124140E+00  0.388965713934998E-03
  0.635605065171759E+00 -0.848039647510822E+00  0.544250178084219E-03
  0.635605065171759E+00 -0.741262543272473E+00  0.677716753865783E-03
  0.635605065171759E+00 -0.635605065171759E+00  0.786283548682117E-03
  0.635605065171759E+00 -0.529610856542781E+00  0.871583978850138E-03
  0.635605065171759E+00 -0.423704436434061E+00  0.934972989002691E-03
  0.635605065171759E+00 -0.317774315082929E+00  0.979460502781313E-03
  0.635605065171759E+00 -0.211850529508475E+00  0.100827706441473E-02
  0.635605065171759E+00 -0.105925053478478E+00  0.102427829340717E-02
  0.635605065171759E+00 -0.790519978293986E-17  0.102938672576770E-02
  0.635605065171759E+00  0.105925053478478E+00  0.102427829340717E-02
  0.635605065171759E+00  0.211850529508475E+00  0.100827706441473E-02
  0.635605065171759E+00  0.317774315082929E+00  0.979460502781313E-03
  0.635605065171759E+00  0.423704436434061E+00  0.934972989002690E-03
  0.635605065171759E+00  0.529610856542781E+00  0.871583978850137E-03
  0.635605065171759E+00  0.635605065171759E+00  0.786283548682117E-03
  0.635605065171759E+00  0.741262543272473E+00  0.677716753865783E-03
  0.635605065171759E+00  0.848039647510822E+00  0.544250178084220E-03
  0.635605065171759E+00  0.955162973124140E+00  0.388965713934999E-03
  0.635605065171759E+00  0.100000000000000E+01  0.318770344661096E-03
  0.741262543272473E+00 -0.100000000000000E+01  0.144896775764293E-03
  0.741262543272473E+00 -0.955162973124140E+00  0.176812273843233E-03
  0.741262543272473E+00 -0.848039647510822E+00  0.247494373904968E-03
  0.741262543272473E+00 -0.741262543272473E+00  0.308378507984897E-03
  0.741262543272473E+00 -0.635605065171759E+00  0.358044408832474E-03
  0.741262543272473E+00 -0.529610856542781E+00  0.397197766002305E-03
  0.741262543272473E+00 -0.423704436434061E+00  0.426402001175630E-03
  0.741262543272473E+00 -0.317774315082929E+00  0.446976493837289E-03
  0.741262543272473E+00 -0.211850529508475E+00  0.460351079205136E-03
  0.741262543272473E+00 -0.105925053478478E+00  0.467798734757275E-03
  0.741262543272473E+00 -0.790519978293986E-17  0.470180192675472E-03
  0.741262543272473E+00  0.105925053478478E+00  0.467798734757275E-03
  0.741262543272473E+00  0.211850529508475E+00  0.460351079205136E-03
  0.741262543272473E+00  0.317774315082929E+00  0.446976493837289E-03
  0.741262543272473E+00  0.423704436434061E+00  0.426402001175629E-03
  0.741262543272473E+00  0.529610856542781E+00  0.397197766002305E-03
  0.741262543272473E+00  0.635605065171759E+00  0.358044408832474E-03
  0.741262543272473E+00  0.741262543272473E+00  0.308378507984897E-03
  0.741262543272473E+00  0.848039647510822E+00  0.247494373904968E-03
  0.741262543272473E+00  0.955162973124140E+00  0.176812273843234E-03
  0.741262543272473E+00  0.100000000000000E+01  0.144896775764293E-03
  0.848039647510822E+00 -0.100000000000000E+01  0.591889674165555E-04
  0.848039647510822E+00 -0.955162973124140E+00  0.722287473858736E-04
  0.848039647510822E+00 -0.848039647510822E+00  0.101132523778529E-03
  0.848039647510822E+00 -0.741262543272473E+00  0.126071712253208E-03
  0.848039647510822E+00 -0.635605065171759E+00  0.146460295979560E-03
  0.848039647510822E+00 -0.529610856542781E+00  0.162575164126891E-03
  0.848039647510822E+00 -0.423704436434061E+00  0.174629924617346E-03
  0.848039647510822E+00 -0.317774315082929E+00  0.183147883716206E-03
  0.848039647510822E+00 -0.211850529508475E+00  0.188700474616909E-03
  0.848039647510822E+00 -0.105925053478478E+00  0.191799290188403E-03
  0.848039647510822E+00 -0.790519978293986E-17  0.192791396926508E-03
  0.848039647510822E+00  0.105925053478478E+00  0.191799290188403E-03
  0.848039647510822E+00  0.211850529508475E+00  0.188700474616909E-03
  0.848039647510822E+00  0.317774315082929E+00  0.183147883716206E-03
  0.848039647510822E+00  0.423704436434061E+00  0.174629924617346E-03
  0.848039647510822E+00  0.529610856542781E+00  0.162575164126891E-03
  0.848039647510822E+00  0.635605065171759E+00  0.146460295979560E-03
  0.848039647510822E+00  0.741262543272473E+00  0.126071712253208E-03
  0.848039647510822E+00  0.848039647510822E+00  0.101132523778529E-03
  0.848039647510822E+00  0.955162973124140E+00  0.722287473858738E-04
  0.848039647510822E+00  0.100000000000000E+01  0.591889674165557E-04
  0.955162973124140E+00 -0.100000000000000E+01  0.143142468492770E-04
  0.955162973124140E+00 -0.955162973124140E+00  0.174680980450554E-04
  0.955162973124140E+00 -0.848039647510822E+00  0.244619027543156E-04
  0.955162973124140E+00 -0.741262543272473E+00  0.305014966103858E-04
  0.955162973124140E+00 -0.635605065171759E+00  0.354444820712752E-04
  0.955162973124140E+00 -0.529610856542781E+00  0.393564735690822E-04
  0.955162973124140E+00 -0.423704436434061E+00  0.422871315714128E-04
  0.955162973124140E+00 -0.317774315082929E+00  0.443610903910881E-04
  0.955162973124140E+00 -0.211850529508475E+00  0.457149622288424E-04
  0.955162973124140E+00 -0.105925053478478E+00  0.464713936162139E-04
  0.955162973124140E+00 -0.790519978293986E-17  0.467137245079058E-04
  0.955162973124140E+00  0.105925053478478E+00  0.464713936162139E-04
  0.955162973124140E+00  0.211850529508475E+00  0.457149622288424E-04
  0.955162973124140E+00  0.317774315082929E+00  0.443610903910881E-04
  0.955162973124140E+00  0.423704436434061E+00  0.422871315714128E-04
  0.955162973124140E+00  0.529610856542781E+00  0.393564735690822E-04
  0.955162973124140E+00  0.635605065171759E+00  0.354444820712752E-04
  0.955162973124140E+00  0.741262543272473E+00  0.305014966103858E-04
  0.955162973124140E+00  0.848039647510822E+00  0.244619027543157E-04
  0.955162973124140E+00  0.955162973124140E+00  0.174680980450555E-04
  0.955162973124140E+00  0.100000000000000E+01  0.143142468492770E-04
  0.100000000000000E+01 -0.100000000000000E+01  0.000000000000000E+00
  0.100000000000000E+01 -0.955162973124140E+00  0.000000000000000E+00
  0.100000000000000E+01 -0.848039647510822E+00  0.000000000000000E+00
  0.100000000000000E+01 -0.741262543272473E+00  0.000000000000000E+00
  0.100000000000000E+01 -0.635605065171759E+00  0.000000000000000E+00
  0.100000000000000E+01 -0.529610856542781E+00  0.000000000000000E+00
  0.100000000000000E+01 -0.423704436434061E+00  0.000000000000000E+00