 VARIABLES =  $x$  t=  0.6  $x$2  t=  0.8  $x$3  t=  1.0
 ZONE I=          21 ,DATAPACKING=POINT
 -0.100000000000000E+01  0.138879438649640E-10 -0.100000000000000E+01  0.138879438649640E-10 -0.100000000000000E+01  0.138879438649640E-10 -0.100000000000000E+01  0.138879438649640E-10 -0.100000000000000E+01  0.138879438649640E-10
 -0.968133451622095E+00  0.393737652291967E-02 -0.968133451622095E+00  0.307649122646662E-02 -0.968133451622095E+00  0.240380223203840E-02 -0.968133451622095E+00  0.187819637647381E-02 -0.968133451622095E+00  0.146751704144542E-02
 -0.881334751433768E+00  0.145834199324775E-01 -0.881334751433768E+00  0.113948295680620E-01 -0.881334751433768E+00  0.890329672567033E-02 -0.881334751433768E+00  0.695653710504818E-02 -0.881334751433768E+00  0.543544692443164E-02
 -0.764271786586648E+00  0.284771309457453E-01 -0.764271786586648E+00  0.222507078682317E-01 -0.764271786586648E+00  0.173854816576423E-01 -0.764271786586648E+00  0.135840405368146E-01 -0.764271786586648E+00  0.106138053795304E-01
 -0.653642386938342E+00  0.407324233452464E-01 -0.653642386938342E+00  0.318263357271332E-01 -0.653642386938342E+00  0.248673419886115E-01 -0.653642386938342E+00  0.194299456351863E-01 -0.653642386938342E+00  0.151814667654515E-01
 -0.545511771864039E+00  0.515278122378974E-01 -0.545511771864039E+00  0.402611962914346E-01 -0.545511771864039E+00  0.314578621631243E-01 -0.545511771864039E+00  0.245794067310194E-01 -0.545511771864039E+00  0.192049658873252E-01
 -0.436369536137632E+00  0.609195490069113E-01 -0.436369536137632E+00  0.475992539628239E-01 -0.436369536137632E+00  0.371913948735269E-01 -0.436369536137632E+00  0.290592652354292E-01 -0.436369536137632E+00  0.227052751299486E-01
 -0.327180849161556E+00  0.685280076702772E-01 -0.327180849161556E+00  0.535439206624974E-01 -0.327180849161556E+00  0.418362061709264E-01 -0.327180849161556E+00  0.326884576354687E-01 -0.327180849161556E+00  0.255409216899435E-01
 -0.218154949867251E+00  0.741187679536041E-01 -0.218154949867251E+00  0.579120739162204E-01 -0.218154949867251E+00  0.452492188352422E-01 -0.218154949867251E+00  0.353551919163523E-01 -0.218154949867251E+00  0.276245576281165E-01
 -0.109079894803258E+00  0.775419788922674E-01 -0.109079894803258E+00  0.605866676854591E-01 -0.109079894803258E+00  0.473389839183952E-01 -0.109079894803258E+00  0.369880154754551E-01 -0.109079894803258E+00  0.289003539507678E-01
  0.767813718056944E-17  0.786943706107271E-01  0.767813718056944E-17  0.614870413713988E-01  0.767813718056944E-17  0.480424808786795E-01  0.767813718056944E-17  0.375376879449115E-01  0.767813718056944E-17  0.293298370414442E-01
  0.109079894803258E+00  0.775419788922672E-01  0.109079894803258E+00  0.605866676854590E-01  0.109079894803258E+00  0.473389839183951E-01  0.109079894803258E+00  0.369880154754550E-01  0.109079894803258E+00  0.289003539507677E-01
  0.218154949867251E+00  0.741187679536038E-01  0.218154949867251E+00  0.579120739162202E-01  0.218154949867251E+00  0.452492188352420E-01  0.218154949867251E+00  0.353551919163521E-01  0.218154949867251E+00  0.276245576281164E-01
  0.327180849161556E+00  0.685280076702769E-01  0.327180849161556E+00  0.535439206624972E-01  0.327180849161556E+00  0.418362061709263E-01  0.327180849161556E+00  0.326884576354685E-01  0.327180849161556E+00  0.255409216899434E-01
  0.436369536137632E+00  0.609195490069111E-01  0.436369536137632E+00  0.475992539628237E-01  0.436369536137632E+00  0.371913948735268E-01  0.436369536137632E+00  0.290592652354291E-01  0.436369536137632E+00  0.227052751299485E-01
  0.545511771864039E+00  0.515278122378972E-01  0.545511771864039E+00  0.402611962914345E-01  0.545511771864039E+00  0.314578621631242E-01  0.545511771864039E+00  0.245794067310193E-01  0.545511771864039E+00  0.192049658873251E-01
  0.653642386938342E+00  0.407324233452463E-01  0.653642386938342E+00  0.318263357271331E-01  0.653642386938342E+00  0.248673419886114E-01  0.653642386938342E+00  0.194299456351863E-01  0.653642386938342E+00  0.151814667654515E-01
  0.764271786586648E+00  0.284771309457453E-01  0.764271786586648E+00  0.222507078682316E-01  0.764271786586648E+00  0.173854816576422E-01  0.764271786586648E+00  0.135840405368146E-01  0.764271786586648E+00  0.106138053795304E-01
  0.881334751433768E+00  0.145834199324775E-01  0.881334751433768E+00  0.113948295680620E-01  0.881334751433768E+00  0.890329672567032E-02  0.881334751433768E+00  0.695653710504817E-02  0.881334751433768E+00  0.543544692443162E-02
  0.968133451622095E+00  0.393737652291966E-02  0.968133451622095E+00  0.307649122646661E-02  0.968133451622095E+00  0.240380223203840E-02  0.968133451622095E+00  0.187819637647380E-02  0.968133451622095E+00  0.146751704144542E-02
  0.100000000000000E+01  0.138879438649640E-10  0.100000000000000E+01  0.138879438649640E-10  0.100000000000000E+01  0.138879438649640E-10  0.100000000000000E+01  0.138879438649640E-10  0.100000000000000E+01  0.138879438649640E-10
