 VARIABLES =  $x$  (a)
 ZONE I=         441 ,DATAPACKING=POINT
 -0.100000000000000E+01 -0.100000000000000E+01  0.100000000000000E+01
 -0.100000000000000E+01 -0.955162973124140E+00  0.100000000000000E+01
 -0.100000000000000E+01 -0.848039647510822E+00  0.100000000000000E+01
 -0.100000000000000E+01 -0.741262543272473E+00  0.100000000000000E+01
 -0.100000000000000E+01 -0.635605065171759E+00  0.100000000000000E+01
 -0.100000000000000E+01 -0.529610856542781E+00  0.100000000000000E+01
 -0.100000000000000E+01 -0.423704436434061E+00  0.100000000000000E+01
 -0.100000000000000E+01 -0.317774315082929E+00  0.100000000000000E+01
 -0.100000000000000E+01 -0.211850529508475E+00  0.100000000000000E+01
 -0.100000000000000E+01 -0.105925053478478E+00  0.100000000000000E+01
 -0.100000000000000E+01 -0.790519978293986E-17  0.100000000000000E+01
 -0.100000000000000E+01  0.105925053478478E+00  0.100000000000000E+01
 -0.100000000000000E+01  0.211850529508475E+00  0.100000000000000E+01
 -0.100000000000000E+01  0.317774315082929E+00  0.100000000000000E+01
 -0.100000000000000E+01  0.423704436434061E+00  0.100000000000000E+01
 -0.100000000000000E+01  0.529610856542781E+00  0.100000000000000E+01
 -0.100000000000000E+01  0.635605065171759E+00  0.100000000000000E+01
 -0.100000000000000E+01  0.741262543272473E+00  0.100000000000000E+01
 -0.100000000000000E+01  0.848039647510822E+00  0.100000000000000E+01
 -0.100000000000000E+01  0.955162973124140E+00  0.100000000000000E+01
 -0.100000000000000E+01  0.100000000000000E+01  0.100000000000000E+01
 -0.955162973124140E+00 -0.100000000000000E+01  0.000000000000000E+00
 -0.955162973124140E+00 -0.955162973124140E+00  0.497446742816999E+00
 -0.955162973124140E+00 -0.848039647510822E+00  0.811502220309415E+00
 -0.955162973124140E+00 -0.741262543272473E+00  0.877975169323645E+00
 -0.955162973124140E+00 -0.635605065171759E+00  0.902555528284875E+00
 -0.955162973124140E+00 -0.529610856542781E+00  0.914596003204169E+00
 -0.955162973124140E+00 -0.423704436434061E+00  0.920934904897246E+00
 -0.955162973124140E+00 -0.317774315082929E+00  0.924359304622295E+00
 -0.955162973124140E+00 -0.211850529508475E+00  0.926185614658993E+00
 -0.955162973124140E+00 -0.105925053478478E+00  0.927074316418128E+00
 -0.955162973124140E+00 -0.790519978293986E-17  0.927339443913916E+00
 -0.955162973124140E+00  0.105925053478478E+00  0.927074316418128E+00
 -0.955162973124140E+00  0.211850529508475E+00  0.926185614658993E+00
 -0.955162973124140E+00  0.317774315082929E+00  0.924359304622295E+00
 -0.955162973124140E+00  0.423704436434061E+00  0.920934904897246E+00
 -0.955162973124140E+00  0.529610856542781E+00  0.914596003204169E+00
 -0.955162973124140E+00  0.635605065171759E+00  0.902555528284875E+00
 -0.955162973124140E+00  0.741262543272473E+00  0.877975169323645E+00
 -0.955162973124140E+00  0.848039647510822E+00  0.811502220309415E+00
 -0.955162973124140E+00  0.955162973124140E+00  0.497446742816999E+00
 -0.955162973124140E+00  0.100000000000000E+01  0.000000000000000E+00
 -0.848039647510822E+00 -0.100000000000000E+01  0.000000000000000E+00
 -0.848039647510822E+00 -0.955162973124140E+00  0.171431312078083E+00
 -0.848039647510822E+00 -0.848039647510822E+00  0.471481126996289E+00
 -0.848039647510822E+00 -0.741262543272473E+00  0.614423606112755E+00
 -0.848039647510822E+00 -0.635605065171759E+00  0.682718454881795E+00
 -0.848039647510822E+00 -0.529610856542781E+00  0.718213342837367E+00
 -0.848039647510822E+00 -0.423704436434061E+00  0.737424795472486E+00
 -0.848039647510822E+00 -0.317774315082929E+00  0.747997216767643E+00
 -0.848039647510822E+00 -0.211850529508475E+00  0.753704244704781E+00
 -0.848039647510822E+00 -0.105925053478478E+00  0.756501668728839E+00
 -0.848039647510822E+00 -0.790519978293986E-17  0.757339134511386E+00
 -0.848039647510822E+00  0.105925053478478E+00  0.756501668728839E+00
 -0.848039647510822E+00  0.211850529508475E+00  0.753704244704781E+00
 -0.848039647510822E+00  0.317774315082929E+00  0.747997216767642E+00
 -0.848039647510822E+00  0.423704436434061E+00  0.737424795472485E+00
 -0.848039647510822E+00  0.529610856542781E+00  0.718213342837367E+00
 -0.848039647510822E+00  0.635605065171759E+00  0.682718454881795E+00
 -0.848039647510822E+00  0.741262543272473E+00  0.614423606112755E+00
 -0.848039647510822E+00  0.848039647510822E+00  0.471481126996289E+00
 -0.848039647510822E+00  0.955162973124140E+00  0.171431312078083E+00
 -0.848039647510822E+00  0.100000000000000E+01  0.000000000000000E+00
 -0.741262543272473E+00 -0.100000000000000E+01  0.000000000000000E+00
 -0.741262543272473E+00 -0.955162973124140E+00  0.937831324434242E-01
 -0.741262543272473E+00 -0.848039647510822E+00  0.291190160779239E+00
 -0.741262543272473E+00 -0.741262543272473E+00  0.421905046683761E+00
 -0.741262543272473E+00 -0.635605065171759E+00  0.499247181315581E+00
 -0.741262543272473E+00 -0.529610856542781E+00  0.544439113312982E+00
 -0.741262543272473E+00 -0.423704436434061E+00  0.570530420289133E+00
 -0.741262543272473E+00 -0.317774315082929E+00  0.585443594835406E+00
 -0.741262543272473E+00 -0.211850529508475E+00  0.593683994390710E+00
 -0.741262543272473E+00 -0.105925053478478E+00  0.597780175006034E+00
 -0.741262543272473E+00 -0.790519978293986E-17  0.599014696974201E+00
 -0.741262543272473E+00  0.105925053478478E+00  0.597780175006034E+00
 -0.741262543272473E+00  0.211850529508475E+00  0.593683994390710E+00
 -0.741262543272473E+00  0.317774315082929E+00  0.585443594835406E+00
 -0.741262543272473E+00  0.423704436434061E+00  0.570530420289133E+00
 -0.741262543272473E+00  0.529610856542781E+00  0.544439113312981E+00
 -0.741262543272473E+00  0.635605065171759E+00  0.499247181315581E+00
 -0.741262543272473E+00  0.741262543272473E+00  0.421905046683761E+00
 -0.741262543272473E+00  0.848039647510822E+00  0.291190160779239E+00
 -0.741262543272473E+00  0.955162973124140E+00  0.937831324434242E-01
 -0.741262543272473E+00  0.100000000000000E+01  0.000000000000000E+00
 -0.635605065171759E+00 -0.100000000000000E+01  0.000000000000000E+00
 -0.635605065171759E+00 -0.955162973124140E+00  0.592885568902797E-01
 -0.635605065171759E+00 -0.848039647510822E+00  0.189761597305432E+00
 -0.635605065171759E+00 -0.741262543272473E+00  0.289735098592951E+00
 -0.635605065171759E+00 -0.635605065171759E+00  0.357455980745043E+00
 -0.635605065171759E+00 -0.529610856542781E+00  0.401106553438844E+00
 -0.635605065171759E+00 -0.423704436434061E+00  0.428033033926638E+00
 -0.635605065171759E+00 -0.317774315082929E+00  0.444112910443572E+00
 -0.635605065171759E+00 -0.211850529508475E+00  0.453257562266225E+00
 -0.635605065171759E+00 -0.105925053478478E+00  0.457885238027976E+00
 -0.635605065171759E+00 -0.790519978293986E-17  0.459292141047498E+00
 -0.635605065171759E+00  0.105925053478478E+00  0.457885238027976E+00
 -0.635605065171759E+00  0.211850529508475E+00  0.453257562266225E+00
 -0.635605065171759E+00  0.317774315082929E+00  0.444112910443571E+00
 -0.635605065171759E+00  0.423704436434061E+00  0.428033033926637E+00
 -0.635605065171759E+00  0.529610856542781E+00  0.401106553438844E+00
 -0.635605065171759E+00  0.635605065171759E+00  0.357455980745043E+00
 -0.635605065171759E+00  0.741262543272473E+00  0.289735098592950E+00
 -0.635605065171759E+00  0.848039647510822E+00  0.189761597305432E+00
 -0.635605065171759E+00  0.955162973124140E+00  0.592885568902798E-01
 -0.635605065171759E+00  0.100000000000000E+01  0.000000000000000E+00
 -0.529610856542781E+00 -0.100000000000000E+01  0.000000000000000E+00
 -0.529610856542781E+00 -0.955162973124140E+00  0.387146951778668E-01
 -0.529610856542781E+00 -0.848039647510822E+00  0.125748525383651E+00
 -0.529610856542781E+00 -0.741262543272473E+00  0.197355434486920E+00
 -0.529610856542781E+00 -0.635605065171759E+00  0.250061859348084E+00
 -0.529610856542781E+00 -0.529610856542781E+00  0.286593318482351E+00
 -0.529610856542781E+00 -0.423704436434061E+00  0.310443818893713E+00
 -0.529610856542781E+00 -0.317774315082929E+00  0.325295384773426E+00
 -0.529610856542781E+00 -0.211850529508475E+00  0.333995088770023E+00
 -0.529610856542781E+00 -0.105925053478478E+00  0.338482991113010E+00
 -0.529610856542781E+00 -0.790519978293986E-17  0.339860532730152E+00
 -0.529610856542781E+00  0.105925053478478E+00  0.338482991113011E+00
 -0.529610856542781E+00  0.211850529508475E+00  0.333995088770023E+00
 -0.529610856542781E+00  0.317774315082929E+00  0.325295384773426E+00
 -0.529610856542781E+00  0.423704436434061E+00  0.310443818893713E+00
 -0.529610856542781E+00  0.529610856542781E+00  0.286593318482351E+00
 -0.529610856542781E+00  0.635605065171759E+00  0.250061859348083E+00
 -0.529610856542781E+00  0.741262543272473E+00  0.197355434486919E+00
 -0.529610856542781E+00  0.848039647510822E+00  0.125748525383651E+00
 -0.529610856542781E+00  0.955162973124140E+00  0.387146951778668E-01
 -0.529610856542781E+00  0.100000000000000E+01  0.000000000000000E+00
 -0.423704436434061E+00 -0.100000000000000E+01  0.000000000000000E+00
 -0.423704436434061E+00 -0.955162973124140E+00  0.253742652049632E-01
 -0.423704436434061E+00 -0.848039647510822E+00  0.831398288500434E-01
 -0.423704436434061E+00 -0.741262543272473E+00  0.132554916732137E+00
 -0.423704436434061E+00 -0.635605065171759E+00  0.170855064803306E+00
 -0.423704436434061E+00 -0.529610856542781E+00  0.198800873046969E+00
 -0.423704436434061E+00 -0.423704436434061E+00  0.217882246966790E+00
 -0.423704436434061E+00 -0.317774315082929E+00  0.230200742552584E+00
 -0.423704436434061E+00 -0.211850529508475E+00  0.237615793605853E+00
 -0.423704436434061E+00 -0.105925053478478E+00  0.241512240112684E+00
 -0.423704436434061E+00 -0.790519978293986E-17  0.242719560868469E+00
 -0.423704436434061E+00  0.105925053478478E+00  0.241512240112684E+00
 -0.423704436434061E+00  0.211850529508475E+00  0.237615793605853E+00
 -0.423704436434061E+00  0.317774315082929E+00  0.230200742552584E+00
 -0.423704436434061E+00  0.423704436434061E+00  0.217882246966790E+00
 -0.423704436434061E+00  0.529610856542781E+00  0.198800873046969E+00
 -0.423704436434061E+00  0.635605065171759E+00  0.170855064803306E+00
 -0.423704436434061E+00  0.741262543272473E+00  0.132554916732137E+00
 -0.423704436434061E+00  0.848039647510822E+00  0.831398288500434E-01
 -0.423704436434061E+00  0.955162973124140E+00  0.253742652049632E-01
 -0.423704436434061E+00  0.100000000000000E+01  0.000000000000000E+00
 -0.317774315082929E+00 -0.100000000000000E+01  0.000000000000000E+00
 -0.317774315082929E+00 -0.955162973124140E+00  0.164350591567649E-01
 -0.317774315082929E+00 -0.848039647510822E+00  0.541416534456700E-01
 -0.317774315082929E+00 -0.741262543272473E+00  0.871681889950298E-01
 -0.317774315082929E+00 -0.635605065171759E+00  0.113637881112868E+00
 -0.317774315082929E+00 -0.529610856542781E+00  0.133665874632498E+00
 -0.317774315082929E+00 -0.423704436434061E+00  0.147819097468703E+00
 -0.317774315082929E+00 -0.317774315082929E+00  0.157231150107016E+00
 -0.317774315082929E+00 -0.211850529508475E+00  0.163032036228826E+00
 -0.317774315082929E+00 -0.105925053478478E+00  0.166131322915705E+00
 -0.317774315082929E+00 -0.790519978293986E-17  0.167099994319014E+00
 -0.317774315082929E+00  0.105925053478478E+00  0.166131322915705E+00
 -0.317774315082929E+00  0.211850529508475E+00  0.163032036228826E+00
 -0.317774315082929E+00  0.317774315082929E+00  0.157231150107016E+00
 -0.317774315082929E+00  0.423704436434061E+00  0.147819097468703E+00
 -0.317774315082929E+00  0.529610856542781E+00  0.133665874632498E+00
 -0.317774315082929E+00  0.635605065171759E+00  0.113637881112868E+00
 -0.317774315082929E+00  0.741262543272473E+00  0.871681889950296E-01
 -0.317774315082929E+00  0.848039647510822E+00  0.541416534456700E-01
 -0.317774315082929E+00  0.955162973124140E+00  0.164350591567649E-01
 -0.317774315082929E+00  0.100000000000000E+01  0.000000000000000E+00
 -0.211850529508475E+00 -0.100000000000000E+01  0.000000000000000E+00
 -0.211850529508475E+00 -0.955162973124140E+00  0.104246446497571E-01
 -0.211850529508475E+00 -0.848039647510822E+00  0.344618463339887E-01
 -0.211850529508475E+00 -0.741262543272473E+00  0.558411128610206E-01
 -0.211850529508475E+00 -0.635605065171759E+00  0.733686291330865E-01
 -0.211850529508475E+00 -0.529610856542781E+00  0.869803879636854E-01
 -0.211850529508475E+00 -0.423704436434061E+00  0.968541976917501E-01
 -0.211850529508475E+00 -0.317774315082929E+00  0.103578518717009E+00
 -0.211850529508475E+00 -0.211850529508475E+00  0.107805645945579E+00
 -0.211850529508475E+00 -0.105925053478478E+00  0.110096718008369E+00
 -0.211850529508475E+00 -0.790519978293986E-17  0.110818251914265E+00
 -0.211850529508475E+00  0.105925053478478E+00  0.110096718008369E+00
 -0.211850529508475E+00  0.211850529508475E+00  0.107805645945579E+00
 -0.211850529508475E+00  0.317774315082929E+00  0.103578518717009E+00
 -0.211850529508475E+00  0.423704436434061E+00  0.968541976917500E-01
 -0.211850529508475E+00  0.529610856542781E+00  0.869803879636853E-01
 -0.211850529508475E+00  0.635605065171759E+00  0.733686291330864E-01
 -0.211850529508475E+00  0.741262543272473E+00  0.558411128610206E-01
 -0.211850529508475E+00  0.848039647510822E+00  0.344618463339887E-01
 -0.211850529508475E+00  0.955162973124140E+00  0.104246446497571E-01
 -0.211850529508475E+00  0.100000000000000E+01  0.000000000000000E+00
 -0.105925053478478E+00 -0.100000000000000E+01  0.000000000000000E+00
 -0.105925053478478E+00 -0.955162973124140E+00  0.643673934823701E-02
 -0.105925053478478E+00 -0.848039647510822E+00  0.213291118483881E-01
 -0.105925053478478E+00 -0.741262543272473E+00  0.347145067109983E-01
 -0.105925053478478E+00 -0.635605065171759E+00  0.458645893695243E-01
 -0.105925053478478E+00 -0.529610856542781E+00  0.546900985561752E-01
 -0.105925053478478E+00 -0.423704436434061E+00  0.612210776179236E-01
 -0.105925053478478E+00 -0.317774315082929E+00  0.657537926167398E-01
 -0.105925053478478E+00 -0.211850529508475E+00  0.686498962350792E-01
 -0.105925053478478E+00 -0.105925053478478E+00  0.702386246971166E-01
 -0.105925053478478E+00 -0.790519978293986E-17  0.707422271501208E-01
 -0.105925053478478E+00  0.105925053478478E+00  0.702386246971166E-01
 -0.105925053478478E+00  0.211850529508475E+00  0.686498962350792E-01
 -0.105925053478478E+00  0.317774315082929E+00  0.657537926167398E-01
 -0.105925053478478E+00  0.423704436434061E+00  0.612210776179235E-01
 -0.105925053478478E+00  0.529610856542781E+00  0.546900985561752E-01
 -0.105925053478478E+00  0.635605065171759E+00  0.458645893695242E-01
 -0.105925053478478E+00  0.741262543272473E+00  0.347145067109982E-01
 -0.105925053478478E+00  0.848039647510822E+00  0.213291118483881E-01
 -0.105925053478478E+00  0.955162973124140E+00  0.643673934823702E-02
 -0.105925053478478E+00  0.100000000000000E+01  0.000000000000000E+00
 -0.790519978293986E-17 -0.100000000000000E+01  0.000000000000000E+00
 -0.790519978293986E-17 -0.955162973124140E+00  0.385336674663821E-02
 -0.790519978293986E-17 -0.848039647510822E+00  0.127901471489784E-01
 -0.790519978293986E-17 -0.741262543272473E+00  0.208828802646878E-01
 -0.790519978293986E-17 -0.635605065171759E+00  0.277026171002895E-01
 -0.790519978293986E-17 -0.529610856542781E+00  0.331778630908176E-01
 -0.790519978293986E-17 -0.423704436434061E+00  0.372924089913132E-01
 -0.790519978293986E-17 -0.317774315082929E+00  0.401912815728154E-01
 -0.790519978293986E-17 -0.211850529508475E+00  0.420681666482394E-01
 -0.790519978293986E-17 -0.105925053478478E+00  0.431081478426404E-01
 -0.790519978293986E-17 -0.790519978293986E-17  0.434396073054124E-01
 -0.790519978293986E-17  0.105925053478478E+00  0.431081478426405E-01
 -0.790519978293986E-17  0.211850529508475E+00  0.420681666482395E-01
 -0.790519978293986E-17  0.317774315082929E+00  0.401912815728154E-01
 -0.790519978293986E-17  0.423704436434061E+00  0.372924089913132E-01
 -0.790519978293986E-17  0.529610856542781E+00  0.331778630908175E-01
 -0.790519978293986E-17  0.635605065171759E+00  0.277026171002895E-01
 -0.790519978293986E-17  0.741262543272473E+00  0.208828802646877E-01
 -0.790519978293986E-17  0.848039647510822E+00  0.127901471489784E-01
 -0.790519978293986E-17  0.955162973124140E+00  0.385336674663821E-02
 -0.790519978293986E-17  0.100000000000000E+01  0.000000000000000E+00
  0.105925053478478E+00 -0.100000000000000E+01  0.000000000000000E+00
  0.105925053478478E+00 -0.955162973124140E+00  0.223018640009662E-02
  0.105925053478478E+00 -0.848039647510822E+00  0.741155988040869E-02
  0.105925053478478E+00 -0.741262543272473E+00  0.121294616991989E-01
  0.105925053478478E+00 -0.635605065171759E+00  0.161397316751029E-01
  0.105925053478478E+00 -0.529610856542781E+00  0.193944524449062E-01
  0.105925053478478E+00 -0.423704436434061E+00  0.218698227299828E-01
  0.105925053478478E+00 -0.317774315082929E+00  0.236348589301432E-01
  0.105925053478478E+00 -0.211850529508475E+00  0.247900150480029E-01
  0.105925053478478E+00 -0.105925053478478E+00  0.254353989890888E-01
  0.105925053478478E+00 -0.790519978293986E-17  0.256420279652651E-01
  0.105925053478478E+00  0.105925053478478E+00  0.254353989890888E-01
  0.105925053478478E+00  0.211850529508475E+00  0.247900150480029E-01
  0.105925053478478E+00  0.317774315082929E+00  0.236348589301432E-01
  0.105925053478478E+00  0.423704436434061E+00  0.218698227299828E-01
  0.105925053478478E+00  0.529610856542781E+00  0.193944524449062E-01
  0.105925053478478E+00  0.635605065171759E+00  0.161397316751028E-01
  0.105925053478478E+00  0.741262543272473E+00  0.121294616991988E-01
  0.105925053478478E+00  0.848039647510822E+00  0.741155988040868E-02
  0.105925053478478E+00  0.955162973124140E+00  0.223018640009662E-02
  0.105925053478478E+00  0.100000000000000E+01  0.000000000000000E+00
  0.211850529508475E+00 -0.100000000000000E+01  0.000000000000000E+00
  0.211850529508475E+00 -0.955162973124140E+00  0.124521058935387E-02
  0.211850529508475E+00 -0.848039647510822E+00  0.414202755618913E-02
  0.211850529508475E+00 -0.741262543272473E+00  0.679072809728260E-02
  0.211850529508475E+00 -0.635605065171759E+00  0.905707493607789E-02
  0.211850529508475E+00 -0.529610856542781E+00  0.109119605869052E-01
  0.211850529508475E+00 -0.423704436434061E+00  0.123361096500169E-01
  0.211850529508475E+00 -0.317774315082929E+00  0.133614070600889E-01
  0.211850529508475E+00 -0.211850529508475E+00  0.140383456311022E-01
  0.211850529508475E+00 -0.105925053478478E+00  0.144191333322432E-01
  0.211850529508475E+00 -0.790519978293986E-17  0.145415066468613E-01
  0.211850529508475E+00  0.105925053478478E+00  0.144191333322433E-01
  0.211850529508475E+00  0.211850529508475E+00  0.140383456311022E-01
  0.211850529508475E+00  0.317774315082929E+00  0.133614070600889E-01
  0.211850529508475E+00  0.423704436434061E+00  0.123361096500169E-01
  0.211850529508475E+00  0.529610856542781E+00  0.109119605869051E-01
  0.211850529508475E+00  0.635605065171759E+00  0.905707493607787E-02
  0.211850529508475E+00  0.741262543272473E+00  0.679072809728259E-02
  0.211850529508475E+00  0.848039647510822E+00  0.414202755618913E-02
  0.211850529508475E+00  0.955162973124140E+00  0.124521058935387E-02
  0.211850529508475E+00  0.100000000000000E+01  0.000000000000000E+00
  0.317774315082929E+00 -0.100000000000000E+01  0.000000000000000E+00
  0.317774315082929E+00 -0.955162973124140E+00  0.669622019734963E-03
  0.317774315082929E+00 -0.848039647510822E+00  0.222899899411662E-02
  0.317774315082929E+00 -0.741262543272473E+00  0.365941490154757E-02
  0.317774315082929E+00 -0.635605065171759E+00  0.488966807994737E-02
  0.317774315082929E+00 -0.529610856542781E+00  0.590326715157710E-02
  0.317774315082929E+00 -0.423704436434061E+00  0.668740346098517E-02
  0.317774315082929E+00 -0.317774315082929E+00  0.725634977146687E-02
  0.317774315082929E+00 -0.211850529508475E+00  0.763469771342961E-02
  0.317774315082929E+00 -0.105925053478478E+00  0.784872245882506E-02
  0.317774315082929E+00 -0.790519978293986E-17  0.791771772378399E-02
  0.317774315082929E+00  0.105925053478478E+00  0.784872245882507E-02
  0.317774315082929E+00  0.211850529508475E+00  0.763469771342961E-02
  0.317774315082929E+00  0.317774315082929E+00  0.725634977146687E-02
  0.317774315082929E+00  0.423704436434061E+00  0.668740346098516E-02
  0.317774315082929E+00  0.529610856542781E+00  0.590326715157709E-02
  0.317774315082929E+00  0.635605065171759E+00  0.488966807994736E-02
  0.317774315082929E+00  0.741262543272473E+00  0.365941490154757E-02
  0.317774315082929E+00  0.848039647510822E+00  0.222899899411662E-02
  0.317774315082929E+00  0.955162973124140E+00  0.669622019734962E-03
  0.317774315082929E+00  0.100000000000000E+01  0.000000000000000E+00
  0.423704436434061E+00 -0.100000000000000E+01  0.000000000000000E+00
  0.423704436434061E+00 -0.955162973124140E+00  0.346324036221408E-03
  0.423704436434061E+00 -0.848039647510822E+00  0.115347159540652E-02
  0.423704436434061E+00 -0.741262543272473E+00  0.189575385981317E-02
  0.423704436434061E+00 -0.635605065171759E+00  0.253678586293520E-02
  0.423704436434061E+00 -0.529610856542781E+00  0.306774339107812E-02
  0.423704436434061E+00 -0.423704436434061E+00  0.348102373295417E-02
  0.423704436434061E+00 -0.317774315082929E+00  0.378280346991903E-02
  0.423704436434061E+00 -0.211850529508475E+00  0.398467749625201E-02
  0.423704436434061E+00 -0.105925053478478E+00  0.409940657931622E-02
  0.423704436434061E+00 -0.790519978293986E-17  0.413648763324121E-02
  0.423704436434061E+00  0.105925053478478E+00  0.409940657931623E-02
  0.423704436434061E+00  0.211850529508475E+00  0.398467749625202E-02
  0.423704436434061E+00  0.317774315082929E+00  0.378280346991903E-02
  0.423704436434061E+00  0.423704436434061E+00  0.348102373295417E-02
  0.423704436434061E+00  0.529610856542781E+00  0.306774339107811E-02
  0.423704436434061E+00  0.635605065171759E+00  0.253678586293520E-02
  0.423704436434061E+00  0.741262543272473E+00  0.189575385981317E-02
  0.423704436434061E+00  0.848039647510822E+00  0.115347159540652E-02
  0.423704436434061E+00  0.955162973124140E+00  0.346324036221408E-03
  0.423704436434061E+00  0.100000000000000E+01  0.000000000000000E+00
  0.529610856542781E+00 -0.100000000000000E+01  0.000000000000000E+00
  0.529610856542781E+00 -0.955162973124140E+00  0.172071946712006E-03
  0.529610856542781E+00 -0.848039647510822E+00  0.573363285345626E-03
  0.529610856542781E+00 -0.741262543272473E+00  0.943159712882344E-03
  0.529610856542781E+00 -0.635605065171759E+00  0.126357073074790E-02
  0.529610856542781E+00 -0.529610856542781E+00  0.153010996264245E-02
  0.529610856542781E+00 -0.423704436434061E+00  0.173861710321414E-02
  0.529610856542781E+00 -0.317774315082929E+00  0.189167094719132E-02
  0.529610856542781E+00 -0.211850529508475E+00  0.199455891039645E-02
  0.529610856542781E+00 -0.105925053478478E+00  0.205325904284920E-02
  0.529610856542781E+00 -0.790519978293986E-17  0.207227221491845E-02
  0.529610856542781E+00  0.105925053478478E+00  0.205325904284921E-02
  0.529610856542781E+00  0.211850529508475E+00  0.199455891039645E-02
  0.529610856542781E+00  0.317774315082929E+00  0.189167094719132E-02
  0.529610856542781E+00  0.423704436434061E+00  0.173861710321413E-02
  0.529610856542781E+00  0.529610856542781E+00  0.153010996264245E-02
  0.529610856542781E+00  0.635605065171759E+00  0.126357073074789E-02
  0.529610856542781E+00  0.741262543272473E+00  0.943159712882343E-03
  0.529610856542781E+00  0.848039647510822E+00  0.573363285345625E-03
  0.529610856542781E+00  0.955162973124140E+00  0.172071946712006E-03
  0.529610856542781E+00  0.100000000000000E+01  0.000000000000000E+00
  0.635605065171759E+00 -0.100000000000000E+01  0.000000000000000E+00
  0.635605065171759E+00 -0.955162973124140E+00  0.818924596064573E-04
  0.635605065171759E+00 -0.848039647510822E+00  0.272974701309237E-03
  0.635605065171759E+00 -0.741262543272473E+00  0.449352521260301E-03
  0.635605065171759E+00 -0.635605065171759E+00  0.602587706394404E-03
  0.635605065171759E+00 -0.529610856542781E+00  0.730510573989379E-03
  0.635605065171759E+00 -0.423704436434061E+00  0.830995505805266E-03
  0.635605065171759E+00 -0.317774315082929E+00  0.905077466450679E-03
  0.635605065171759E+00 -0.211850529508475E+00  0.955081630055045E-03
  0.635605065171759E+00 -0.105925053478478E+00  0.983702632510256E-03
  0.635605065171759E+00 -0.790519978293986E-17  0.992989816325638E-03
  0.635605065171759E+00  0.105925053478478E+00  0.983702632510257E-03
  0.635605065171759E+00  0.211850529508475E+00  0.955081630055046E-03
  0.635605065171759E+00  0.317774315082929E+00  0.905077466450679E-03
  0.635605065171759E+00  0.423704436434061E+00  0.830995505805265E-03
  0.635605065171759E+00  0.529610856542781E+00  0.730510573989378E-03
  0.635605065171759E+00  0.635605065171759E+00  0.602587706394403E-03
  0.635605065171759E+00  0.741262543272473E+00  0.449352521260300E-03
  0.635605065171759E+00  0.848039647510822E+00  0.272974701309236E-03
  0.635605065171759E+00  0.955162973124140E+00  0.818924596064572E-04
  0.635605065171759E+00  0.100000000000000E+01  0.000000000000000E+00
  0.741262543272473E+00 -0.100000000000000E+01  0.000000000000000E+00
  0.741262543272473E+00 -0.955162973124140E+00  0.371556456613764E-04
  0.741262543272473E+00 -0.848039647510822E+00  0.123888487912787E-03
  0.741262543272473E+00 -0.741262543272473E+00  0.204054025239218E-03
  0.741262543272473E+00 -0.635605065171759E+00  0.273852668927248E-03
  0.741262543272473E+00 -0.529610856542781E+00  0.332288842135921E-03
  0.741262543272473E+00 -0.423704436434061E+00  0.378345657811482E-03
  0.741262543272473E+00 -0.317774315082929E+00  0.412421634908617E-03
  0.741262543272473E+00 -0.211850529508475E+00  0.435499494394322E-03
  0.741262543272473E+00 -0.105925053478478E+00  0.448743745052035E-03
  0.741262543272473E+00 -0.790519978293986E-17  0.453047731210478E-03
  0.741262543272473E+00  0.105925053478478E+00  0.448743745052035E-03
  0.741262543272473E+00  0.211850529508475E+00  0.435499494394322E-03
  0.741262543272473E+00  0.317774315082929E+00  0.412421634908617E-03
  0.741262543272473E+00  0.423704436434061E+00  0.378345657811482E-03
  0.741262543272473E+00  0.529610856542781E+00  0.332288842135920E-03
  0.741262543272473E+00  0.635605065171759E+00  0.273852668927248E-03
  0.741262543272473E+00  0.741262543272473E+00  0.204054025239218E-03
  0.741262543272473E+00  0.848039647510822E+00  0.123888487912787E-03
  0.741262543272473E+00  0.955162973124140E+00  0.371556456613764E-04
  0.741262543272473E+00  0.100000000000000E+01  0.000000000000000E+00
  0.848039647510822E+00 -0.100000000000000E+01  0.000000000000000E+00
  0.848039647510822E+00 -0.955162973124140E+00  0.151561114327262E-04
  0.848039647510822E+00 -0.848039647510822E+00  0.505465436099180E-04
  0.848039647510822E+00 -0.741262543272473E+00  0.832907021357645E-04
  0.848039647510822E+00 -0.635605065171759E+00  0.111847974699343E-03
  0.848039647510822E+00 -0.529610856542781E+00  0.135809111622831E-03
  0.848039647510822E+00 -0.423704436434061E+00  0.154743132069438E-03
  0.848039647510822E+00 -0.317774315082929E+00  0.168790259944220E-03
  0.848039647510822E+00 -0.211850529508475E+00  0.178328274504097E-03
  0.848039647510822E+00 -0.105925053478478E+00  0.183813340713272E-03
  0.848039647510822E+00 -0.790519978293986E-17  0.185597870931723E-03
  0.848039647510822E+00  0.105925053478478E+00  0.183813340713272E-03
  0.848039647510822E+00  0.211850529508475E+00  0.178328274504097E-03
  0.848039647510822E+00  0.317774315082929E+00  0.168790259944220E-03
  0.848039647510822E+00  0.423704436434061E+00  0.154743132069437E-03
  0.848039647510822E+00  0.529610856542781E+00  0.135809111622831E-03
  0.848039647510822E+00  0.635605065171759E+00  0.111847974699343E-03
  0.848039647510822E+00  0.741262543272473E+00  0.832907021357644E-04
  0.848039647510822E+00  0.848039647510822E+00  0.505465436099180E-04
  0.848039647510822E+00  0.955162973124140E+00  0.151561114327262E-04
  0.848039647510822E+00  0.100000000000000E+01  0.000000000000000E+00
  0.955162973124140E+00 -0.100000000000000E+01  0.000000000000000E+00
  0.955162973124140E+00 -0.955162973124140E+00  0.366273606114635E-05
  0.955162973124140E+00 -0.848039647510822E+00  0.122168002647096E-04
  0.955162973124140E+00 -0.741262543272473E+00  0.201352466376327E-04
  0.955162973124140E+00 -0.635605065171759E+00  0.270468965305061E-04
  0.955162973124140E+00 -0.529610856542781E+00  0.328525119599754E-04
  0.955162973124140E+00 -0.423704436434061E+00  0.374460275890879E-04
  0.955162973124140E+00 -0.317774315082929E+00  0.408586429610465E-04
  0.955162973124140E+00 -0.211850529508475E+00  0.431788328688920E-04
  0.955162973124140E+00 -0.105925053478478E+00  0.445144987444596E-04
  0.955162973124140E+00 -0.790519978293986E-17  0.449493011661773E-04
  0.955162973124140E+00  0.105925053478478E+00  0.445144987444596E-04
  0.955162973124140E+00  0.211850529508475E+00  0.431788328688920E-04
  0.955162973124140E+00  0.317774315082929E+00  0.408586429610465E-04
  0.955162973124140E+00  0.423704436434061E+00  0.374460275890878E-04
  0.955162973124140E+00  0.529610856542781E+00  0.328525119599753E-04
  0.955162973124140E+00  0.635605065171759E+00  0.270468965305061E-04
  0.955162973124140E+00  0.741262543272473E+00  0.201352466376327E-04
  0.955162973124140E+00  0.848039647510822E+00  0.122168002647096E-04
  0.955162973124140E+00  0.955162973124140E+00  0.366273606114635E-05
  0.955162973124140E+00  0.100000000000000E+01  0.000000000000000E+00
  0.100000000000000E+01 -0.100000000000000E+01  0.000000000000000E+00
  0.100000000000000E+01 -0.955162973124140E+00  0.000000000000000E+00
  0.100000000000000E+01 -0.848039647510822E+00  0.000000000000000E+00
  0.100000000000000E+01 -0.741262543272473E+00  0.000000000000000E+00
  0.100000000000000E+01 -0.635605065171759E+00  0.000000000000000E+00
  0.100000000000000E+01 -0.529610856542781E+00  0.000000000000000E+00
  0.100000000000000E+01 -0.423704436434061E+00  0.000000000000000E+00