 VARIABLES =  $x$  t=  0.0  $x$2  t=  0.2  $x$3  t=  0.4
 ZONE I=          21 ,DATAPACKING=POINT
 -0.100000000000000E+01  0.138879438649640E-10 -0.100000000000000E+01  0.138879438649640E-10 -0.100000000000000E+01  0.138879438649640E-10
 -0.968133451622095E+00  0.666171207071980E-10 -0.968133451622095E+00  0.100642521971372E-01 -0.968133451622095E+00  0.644366832011425E-02
 -0.881334751433768E+00  0.368581708891982E-08 -0.881334751433768E+00  0.373551878494391E-01 -0.881334751433768E+00  0.238672402041502E-01
 -0.764271786586648E+00  0.455083875007325E-06 -0.764271786586648E+00  0.734107549465596E-01 -0.764271786586648E+00  0.466111065030814E-01
 -0.653642386938342E+00  0.229725794737318E-04 -0.653642386938342E+00  0.105950840035240E+00 -0.653642386938342E+00  0.666814160900176E-01
 -0.545511771864039E+00  0.587533477226568E-03 -0.545511771864039E+00  0.135438878697574E+00 -0.545511771864039E+00  0.843703941393467E-01
 -0.436369536137632E+00  0.856167610168600E-02 -0.436369536137632E+00  0.161889941914341E+00 -0.436369536137632E+00  0.997686051349150E-01
 -0.327180849161556E+00  0.688253803625199E-01 -0.327180849161556E+00  0.183961407560983E+00 -0.327180849161556E+00  0.112250469684075E+00
 -0.218154949867251E+00  0.304285293015948E+00 -0.218154949867251E+00  0.200592452109954E+00 -0.218154949867251E+00  0.121427014907698E+00
 -0.109079894803258E+00  0.742701855303785E+00 -0.109079894803258E+00  0.210962360262961E+00 -0.109079894803258E+00  0.127047949541700E+00
  0.767813718056944E-17  0.100000000000000E+01  0.767813718056944E-17  0.214486687178399E+00  0.767813718056944E-17  0.128940569490546E+00
  0.109079894803258E+00  0.742701855303785E+00  0.109079894803258E+00  0.210962360262961E+00  0.109079894803258E+00  0.127047949541700E+00
  0.218154949867251E+00  0.304285293015948E+00  0.218154949867251E+00  0.200592452109953E+00  0.218154949867251E+00  0.121427014907698E+00
  0.327180849161556E+00  0.688253803625199E-01  0.327180849161556E+00  0.183961407560982E+00  0.327180849161556E+00  0.112250469684075E+00
  0.436369536137632E+00  0.856167610168600E-02  0.436369536137632E+00  0.161889941914341E+00  0.436369536137632E+00  0.997686051349147E-01
  0.545511771864039E+00  0.587533477226568E-03  0.545511771864039E+00  0.135438878697574E+00  0.545511771864039E+00  0.843703941393464E-01
  0.653642386938342E+00  0.229725794737318E-04  0.653642386938342E+00  0.105950840035240E+00  0.653642386938342E+00  0.666814160900173E-01
  0.764271786586648E+00  0.455083875007325E-06  0.764271786586648E+00  0.734107549465595E-01  0.764271786586648E+00  0.466111065030813E-01
  0.881334751433768E+00  0.368581708891982E-08  0.881334751433768E+00  0.373551878494391E-01  0.881334751433768E+00  0.238672402041502E-01
  0.968133451622095E+00  0.666171207071980E-10  0.968133451622095E+00  0.100642521971372E-01  0.968133451622095E+00  0.644366832011423E-02
  0.100000000000000E+01  0.138879438649640E-10  0.100000000000000E+01  0.138879438649640E-10  0.100000000000000E+01  0.138879438649640E-10
