 VARIABLES =  $x$  (c)
 ZONE I=         441 ,DATAPACKING=POINT
 -0.100000000000000E+01 -0.100000000000000E+01  0.100000000000000E+01
 -0.100000000000000E+01 -0.955162973124140E+00  0.100000000000000E+01
 -0.100000000000000E+01 -0.848039647510822E+00  0.100000000000000E+01
 -0.100000000000000E+01 -0.741262543272473E+00  0.100000000000000E+01
 -0.100000000000000E+01 -0.635605065171759E+00  0.100000000000000E+01
 -0.100000000000000E+01 -0.529610856542781E+00  0.100000000000000E+01
 -0.100000000000000E+01 -0.423704436434061E+00  0.100000000000000E+01
 -0.100000000000000E+01 -0.317774315082929E+00  0.100000000000000E+01
 -0.100000000000000E+01 -0.211850529508475E+00  0.100000000000000E+01
 -0.100000000000000E+01 -0.105925053478478E+00  0.100000000000000E+01
 -0.100000000000000E+01 -0.790519978293986E-17  0.100000000000000E+01
 -0.100000000000000E+01  0.105925053478478E+00  0.100000000000000E+01
 -0.100000000000000E+01  0.211850529508475E+00  0.100000000000000E+01
 -0.100000000000000E+01  0.317774315082929E+00  0.100000000000000E+01
 -0.100000000000000E+01  0.423704436434061E+00  0.100000000000000E+01
 -0.100000000000000E+01  0.529610856542781E+00  0.100000000000000E+01
 -0.100000000000000E+01  0.635605065171759E+00  0.100000000000000E+01
 -0.100000000000000E+01  0.741262543272473E+00  0.100000000000000E+01
 -0.100000000000000E+01  0.848039647510822E+00  0.100000000000000E+01
 -0.100000000000000E+01  0.955162973124140E+00  0.100000000000000E+01
 -0.100000000000000E+01  0.100000000000000E+01  0.100000000000000E+01
 -0.955162973124140E+00 -0.100000000000000E+01  0.688564155966834E+00
 -0.955162973124140E+00 -0.955162973124140E+00  0.803717416122602E+00
 -0.955162973124140E+00 -0.848039647510822E+00  0.892998150436752E+00
 -0.955162973124140E+00 -0.741262543272473E+00  0.920897580631153E+00
 -0.955162973124140E+00 -0.635605065171759E+00  0.934358722347345E+00
 -0.955162973124140E+00 -0.529610856542781E+00  0.942223095667488E+00
 -0.955162973124140E+00 -0.423704436434061E+00  0.947099454352514E+00
 -0.955162973124140E+00 -0.317774315082929E+00  0.950186015201402E+00
 -0.955162973124140E+00 -0.211850529508475E+00  0.952086726893696E+00
 -0.955162973124140E+00 -0.105925053478478E+00  0.953122275568780E+00
 -0.955162973124140E+00 -0.790519978293986E-17  0.953451388156283E+00
 -0.955162973124140E+00  0.105925053478478E+00  0.953122275568780E+00
 -0.955162973124140E+00  0.211850529508475E+00  0.952086726893697E+00
 -0.955162973124140E+00  0.317774315082929E+00  0.950186015201402E+00
 -0.955162973124140E+00  0.423704436434061E+00  0.947099454352514E+00
 -0.955162973124140E+00  0.529610856542781E+00  0.942223095667488E+00
 -0.955162973124140E+00  0.635605065171759E+00  0.934358722347345E+00
 -0.955162973124140E+00  0.741262543272473E+00  0.920897580631153E+00
 -0.955162973124140E+00  0.848039647510822E+00  0.892998150436752E+00
 -0.955162973124140E+00  0.955162973124140E+00  0.803717416122602E+00
 -0.955162973124140E+00  0.100000000000000E+01  0.688564155966834E+00
 -0.848039647510822E+00 -0.100000000000000E+01  0.444253700495019E+00
 -0.848039647510822E+00 -0.955162973124140E+00  0.532715506441368E+00
 -0.848039647510822E+00 -0.848039647510822E+00  0.671282735998199E+00
 -0.848039647510822E+00 -0.741262543272473E+00  0.743156402953064E+00
 -0.848039647510822E+00 -0.635605065171759E+00  0.783119042384457E+00
 -0.848039647510822E+00 -0.529610856542781E+00  0.807460417288918E+00
 -0.848039647510822E+00 -0.423704436434061E+00  0.822882395661481E+00
 -0.848039647510822E+00 -0.317774315082929E+00  0.832774014531475E+00
 -0.848039647510822E+00 -0.211850529508475E+00  0.838914704247035E+00
 -0.848039647510822E+00 -0.105925053478478E+00  0.842275855056503E+00
 -0.848039647510822E+00 -0.790519978293986E-17  0.843346354153579E+00
 -0.848039647510822E+00  0.105925053478478E+00  0.842275855056504E+00
 -0.848039647510822E+00  0.211850529508475E+00  0.838914704247035E+00
 -0.848039647510822E+00  0.317774315082929E+00  0.832774014531475E+00
 -0.848039647510822E+00  0.423704436434061E+00  0.822882395661480E+00
 -0.848039647510822E+00  0.529610856542781E+00  0.807460417288917E+00
 -0.848039647510822E+00  0.635605065171759E+00  0.783119042384457E+00
 -0.848039647510822E+00  0.741262543272473E+00  0.743156402953064E+00
 -0.848039647510822E+00  0.848039647510822E+00  0.671282735998200E+00
 -0.848039647510822E+00  0.955162973124140E+00  0.532715506441368E+00
 -0.848039647510822E+00  0.100000000000000E+01  0.444253700495020E+00
 -0.741262543272473E+00 -0.100000000000000E+01  0.319153290141779E+00
 -0.741262543272473E+00 -0.955162973124140E+00  0.386408056799907E+00
 -0.741262543272473E+00 -0.848039647510822E+00  0.512643786751241E+00
 -0.741262543272473E+00 -0.741262543272473E+00  0.595234713053880E+00
 -0.741262543272473E+00 -0.635605065171759E+00  0.648023926747247E+00
 -0.741262543272473E+00 -0.529610856542781E+00  0.682689536032765E+00
 -0.741262543272473E+00 -0.423704436434061E+00  0.705598795359642E+00
 -0.741262543272473E+00 -0.317774315082929E+00  0.720664501667337E+00
 -0.741262543272473E+00 -0.211850529508475E+00  0.730160122714555E+00
 -0.741262543272473E+00 -0.105925053478478E+00  0.735403456323585E+00
 -0.741262543272473E+00 -0.790519978293986E-17  0.737080194842893E+00
 -0.741262543272473E+00  0.105925053478478E+00  0.735403456323586E+00
 -0.741262543272473E+00  0.211850529508475E+00  0.730160122714555E+00
 -0.741262543272473E+00  0.317774315082929E+00  0.720664501667337E+00
 -0.741262543272473E+00  0.423704436434061E+00  0.705598795359642E+00
 -0.741262543272473E+00  0.529610856542781E+00  0.682689536032765E+00
 -0.741262543272473E+00  0.635605065171759E+00  0.648023926747247E+00
 -0.741262543272473E+00  0.741262543272473E+00  0.595234713053880E+00
 -0.741262543272473E+00  0.848039647510822E+00  0.512643786751241E+00
 -0.741262543272473E+00  0.955162973124140E+00  0.386408056799908E+00
 -0.741262543272473E+00  0.100000000000000E+01  0.319153290141780E+00
 -0.635605065171759E+00 -0.100000000000000E+01  0.242134135672298E+00
 -0.635605065171759E+00 -0.955162973124140E+00  0.294286212940509E+00
 -0.635605065171759E+00 -0.848039647510822E+00  0.400031753297947E+00
 -0.635605065171759E+00 -0.741262543272473E+00  0.478267372469241E+00
 -0.635605065171759E+00 -0.635605065171759E+00  0.533434408482973E+00
 -0.635605065171759E+00 -0.529610856542781E+00  0.572207303571088E+00
 -0.635605065171759E+00 -0.423704436434061E+00  0.599008596493602E+00
 -0.635605065171759E+00 -0.317774315082929E+00  0.617157227570113E+00
 -0.635605065171759E+00 -0.211850529508475E+00  0.628812064748805E+00
 -0.635605065171759E+00 -0.105925053478478E+00  0.635319961183050E+00
 -0.635605065171759E+00 -0.790519978293986E-17  0.637412010356149E+00
 -0.635605065171759E+00  0.105925053478478E+00  0.635319961183050E+00
 -0.635605065171759E+00  0.211850529508475E+00  0.628812064748805E+00
 -0.635605065171759E+00  0.317774315082929E+00  0.617157227570113E+00
 -0.635605065171759E+00  0.423704436434061E+00  0.599008596493601E+00
 -0.635605065171759E+00  0.529610856542781E+00  0.572207303571088E+00
 -0.635605065171759E+00  0.635605065171759E+00  0.533434408482973E+00
 -0.635605065171759E+00  0.741262543272473E+00  0.478267372469241E+00
 -0.635605065171759E+00  0.848039647510822E+00  0.400031753297947E+00
 -0.635605065171759E+00  0.955162973124140E+00  0.294286212940509E+00
 -0.635605065171759E+00  0.100000000000000E+01  0.242134135672299E+00
 -0.529610856542781E+00 -0.100000000000000E+01  0.188367376455654E+00
 -0.529610856542781E+00 -0.955162973124140E+00  0.229377450938502E+00
 -0.529610856542781E+00 -0.848039647510822E+00  0.316049111079671E+00
 -0.529610856542781E+00 -0.741262543272473E+00  0.384911975183809E+00
 -0.529610856542781E+00 -0.635605065171759E+00  0.436836022441057E+00
 -0.529610856542781E+00 -0.529610856542781E+00  0.475354575594303E+00
 -0.529610856542781E+00 -0.423704436434061E+00  0.503076709996036E+00
 -0.529610856542781E+00 -0.317774315082929E+00  0.522395205218887E+00
 -0.529610856542781E+00 -0.211850529508475E+00  0.535044812280314E+00
 -0.529610856542781E+00 -0.105925053478478E+00  0.542193582577635E+00
 -0.529610856542781E+00 -0.790519978293986E-17  0.544504885413324E+00
 -0.529610856542781E+00  0.105925053478478E+00  0.542193582577636E+00
 -0.529610856542781E+00  0.211850529508475E+00  0.535044812280315E+00
 -0.529610856542781E+00  0.317774315082929E+00  0.522395205218887E+00
 -0.529610856542781E+00  0.423704436434061E+00  0.503076709996036E+00
 -0.529610856542781E+00  0.529610856542781E+00  0.475354575594302E+00
 -0.529610856542781E+00  0.635605065171759E+00  0.436836022441057E+00
 -0.529610856542781E+00  0.741262543272473E+00  0.384911975183809E+00
 -0.529610856542781E+00  0.848039647510822E+00  0.316049111079671E+00
 -0.529610856542781E+00  0.955162973124140E+00  0.229377450938502E+00
 -0.529610856542781E+00  0.100000000000000E+01  0.188367376455654E+00
 -0.423704436434061E+00 -0.100000000000000E+01  0.148539058243868E+00
 -0.423704436434061E+00 -0.955162973124140E+00  0.181078075020485E+00
 -0.423704436434061E+00 -0.848039647510822E+00  0.251579698643524E+00
 -0.423704436434061E+00 -0.741262543272473E+00  0.310125290422041E+00
 -0.423704436434061E+00 -0.635605065171759E+00  0.356333320622243E+00
 -0.423704436434061E+00 -0.529610856542781E+00  0.392036369856873E+00
 -0.423704436434061E+00 -0.423704436434061E+00  0.418601321033451E+00
 -0.423704436434061E+00 -0.317774315082929E+00  0.437589063589796E+00
 -0.423704436434061E+00 -0.211850529508475E+00  0.450249076018031E+00
 -0.423704436434061E+00 -0.105925053478478E+00  0.457487008157791E+00
 -0.423704436434061E+00 -0.790519978293986E-17  0.459840366413145E+00
 -0.423704436434061E+00  0.105925053478478E+00  0.457487008157792E+00
 -0.423704436434061E+00  0.211850529508475E+00  0.450249076018031E+00
 -0.423704436434061E+00  0.317774315082929E+00  0.437589063589796E+00
 -0.423704436434061E+00  0.423704436434061E+00  0.418601321033451E+00
 -0.423704436434061E+00  0.529610856542781E+00  0.392036369856873E+00
 -0.423704436434061E+00  0.635605065171759E+00  0.356333320622243E+00
 -0.423704436434061E+00  0.741262543272473E+00  0.310125290422041E+00
 -0.423704436434061E+00  0.848039647510822E+00  0.251579698643524E+00
 -0.423704436434061E+00  0.955162973124140E+00  0.181078075020486E+00
 -0.423704436434061E+00  0.100000000000000E+01  0.148539058243869E+00
 -0.317774315082929E+00 -0.100000000000000E+01  0.117824610552984E+00
 -0.317774315082929E+00 -0.955162973124140E+00  0.143736197328783E+00
 -0.317774315082929E+00 -0.848039647510822E+00  0.200790129970451E+00
 -0.317774315082929E+00 -0.741262543272473E+00  0.249564906549985E+00
 -0.317774315082929E+00 -0.635605065171759E+00  0.289304664563362E+00
 -0.317774315082929E+00 -0.529610856542781E+00  0.320955064797124E+00
 -0.317774315082929E+00 -0.423704436434061E+00  0.345134641999804E+00
 -0.317774315082929E+00 -0.317774315082929E+00  0.362788724007556E+00
 -0.317774315082929E+00 -0.211850529508475E+00  0.374747064725452E+00
 -0.317774315082929E+00 -0.105925053478478E+00  0.381655382097501E+00
 -0.317774315082929E+00 -0.790519978293986E-17  0.383913182152848E+00
 -0.317774315082929E+00  0.105925053478478E+00  0.381655382097501E+00
 -0.317774315082929E+00  0.211850529508475E+00  0.374747064725453E+00
 -0.317774315082929E+00  0.317774315082929E+00  0.362788724007556E+00
 -0.317774315082929E+00  0.423704436434061E+00  0.345134641999804E+00
 -0.317774315082929E+00  0.529610856542781E+00  0.320955064797124E+00
 -0.317774315082929E+00  0.635605065171759E+00  0.289304664563362E+00
 -0.317774315082929E+00  0.741262543272473E+00  0.249564906549985E+00
 -0.317774315082929E+00  0.848039647510822E+00  0.200790129970451E+00
 -0.317774315082929E+00  0.955162973124140E+00  0.143736197328784E+00
 -0.317774315082929E+00  0.100000000000000E+01  0.117824610552984E+00
 -0.211850529508475E+00 -0.100000000000000E+01  0.935687760044433E-01
 -0.211850529508475E+00 -0.955162973124140E+00  0.114200125330322E+00
 -0.211850529508475E+00 -0.848039647510822E+00  0.160128674617688E+00
 -0.211850529508475E+00 -0.741262543272473E+00  0.200183872676477E+00
 -0.211850529508475E+00 -0.635605065171759E+00  0.233566102651285E+00
 -0.211850529508475E+00 -0.529610856542781E+00  0.260760140873178E+00
 -0.211850529508475E+00 -0.423704436434061E+00  0.281967237001405E+00
 -0.211850529508475E+00 -0.317774315082929E+00  0.297720636752920E+00
 -0.211850529508475E+00 -0.211850529508475E+00  0.308533991542549E+00
 -0.211850529508475E+00 -0.105925053478478E+00  0.314836970070419E+00
 -0.211850529508475E+00 -0.790519978293986E-17  0.316906207865953E+00
 -0.211850529508475E+00  0.105925053478478E+00  0.314836970070419E+00
 -0.211850529508475E+00  0.211850529508475E+00  0.308533991542549E+00
 -0.211850529508475E+00  0.317774315082929E+00  0.297720636752920E+00
 -0.211850529508475E+00  0.423704436434061E+00  0.281967237001405E+00
 -0.211850529508475E+00  0.529610856542781E+00  0.260760140873178E+00
 -0.211850529508475E+00  0.635605065171759E+00  0.233566102651285E+00
 -0.211850529508475E+00  0.741262543272473E+00  0.200183872676477E+00
 -0.211850529508475E+00  0.848039647510822E+00  0.160128674617689E+00
 -0.211850529508475E+00  0.955162973124140E+00  0.114200125330322E+00
 -0.211850529508475E+00  0.100000000000000E+01  0.935687760044436E-01
 -0.105925053478478E+00 -0.100000000000000E+01  0.741389287857482E-01
 -0.105925053478478E+00 -0.955162973124140E+00  0.905161971033452E-01
 -0.105925053478478E+00 -0.848039647510822E+00  0.127258129553619E+00
 -0.105925053478478E+00 -0.741262543272473E+00  0.159759095577036E+00
 -0.105925053478478E+00 -0.635605065171759E+00  0.187294835494294E+00
 -0.105925053478478E+00 -0.529610856542781E+00  0.210109037886281E+00
 -0.105925053478478E+00 -0.423704436434061E+00  0.228186391662775E+00
 -0.105925053478478E+00 -0.317774315082929E+00  0.241801195038635E+00
 -0.105925053478478E+00 -0.211850529508475E+00  0.251248578361474E+00
 -0.105925053478478E+00 -0.105925053478478E+00  0.256796553159874E+00
 -0.105925053478478E+00 -0.790519978293986E-17  0.258624838359147E+00
 -0.105925053478478E+00  0.105925053478478E+00  0.256796553159874E+00
 -0.105925053478478E+00  0.211850529508475E+00  0.251248578361474E+00
 -0.105925053478478E+00  0.317774315082929E+00  0.241801195038635E+00
 -0.105925053478478E+00  0.423704436434061E+00  0.228186391662775E+00
 -0.105925053478478E+00  0.529610856542781E+00  0.210109037886281E+00
 -0.105925053478478E+00  0.635605065171759E+00  0.187294835494293E+00
 -0.105925053478478E+00  0.741262543272473E+00  0.159759095577036E+00
 -0.105925053478478E+00  0.848039647510822E+00  0.127258129553619E+00
 -0.105925053478478E+00  0.955162973124140E+00  0.905161971033455E-01
 -0.105925053478478E+00  0.100000000000000E+01  0.741389287857484E-01
 -0.790519978293986E-17 -0.100000000000000E+01  0.584608762097391E-01
 -0.790519978293986E-17 -0.955162973124140E+00  0.713920505110058E-01
 -0.790519978293986E-17 -0.848039647510822E+00  0.100566550733886E+00
 -0.790519978293986E-17 -0.741262543272473E+00  0.126641769667301E+00
 -0.790519978293986E-17 -0.635605065171759E+00  0.149004128148770E+00
 -0.790519978293986E-17 -0.529610856542781E+00  0.167770649499339E+00
 -0.790519978293986E-17 -0.423704436434061E+00  0.182825243843200E+00
 -0.790519978293986E-17 -0.317774315082929E+00  0.194287701733278E+00
 -0.790519978293986E-17 -0.211850529508475E+00  0.202311431669906E+00
 -0.790519978293986E-17 -0.105925053478478E+00  0.207052156469555E+00
 -0.790519978293986E-17 -0.790519978293986E-17  0.208619304127704E+00
 -0.790519978293986E-17  0.105925053478478E+00  0.207052156469555E+00
 -0.790519978293986E-17  0.211850529508475E+00  0.202311431669906E+00
 -0.790519978293986E-17  0.317774315082929E+00  0.194287701733278E+00
 -0.790519978293986E-17  0.423704436434061E+00  0.182825243843200E+00
 -0.790519978293986E-17  0.529610856542781E+00  0.167770649499338E+00
 -0.790519978293986E-17  0.635605065171759E+00  0.149004128148770E+00
 -0.790519978293986E-17  0.741262543272473E+00  0.126641769667301E+00
 -0.790519978293986E-17  0.848039647510822E+00  0.100566550733887E+00
 -0.790519978293986E-17  0.955162973124140E+00  0.713920505110060E-01
 -0.790519978293986E-17  0.100000000000000E+01  0.584608762097393E-01
  0.105925053478478E+00 -0.100000000000000E+01  0.457765090427006E-01
  0.105925053478478E+00 -0.955162973124140E+00  0.559119525430781E-01
  0.105925053478478E+00 -0.848039647510822E+00  0.788746425619761E-01
  0.105925053478478E+00 -0.741262543272473E+00  0.995564055390640E-01
  0.105925053478478E+00 -0.635605065171759E+00  0.117456383344986E+00
  0.105925053478478E+00 -0.529610856542781E+00  0.132625382270675E+00
  0.105925053478478E+00 -0.423704436434061E+00  0.144910893853574E+00
  0.105925053478478E+00 -0.317774315082929E+00  0.154345593460539E+00
  0.105925053478478E+00 -0.211850529508475E+00  0.160996159748921E+00
  0.105925053478478E+00 -0.105925053478478E+00  0.164944921014071E+00
  0.105925053478478E+00 -0.790519978293986E-17  0.166253580420014E+00
  0.105925053478478E+00  0.105925053478478E+00  0.164944921014071E+00
  0.105925053478478E+00  0.211850529508475E+00  0.160996159748921E+00
  0.105925053478478E+00  0.317774315082929E+00  0.154345593460539E+00
  0.105925053478478E+00  0.423704436434061E+00  0.144910893853574E+00
  0.105925053478478E+00  0.529610856542781E+00  0.132625382270675E+00
  0.105925053478478E+00  0.635605065171759E+00  0.117456383344986E+00
  0.105925053478478E+00  0.741262543272473E+00  0.995564055390640E-01
  0.105925053478478E+00  0.848039647510822E+00  0.788746425619762E-01
  0.105925053478478E+00  0.955162973124140E+00  0.559119525430782E-01
  0.105925053478478E+00  0.100000000000000E+01  0.457765090427007E-01
  0.211850529508475E+00 -0.100000000000000E+01  0.355173067229908E-01
  0.211850529508475E+00 -0.955162973124140E+00  0.433870750832434E-01
  0.211850529508475E+00 -0.848039647510822E+00  0.612729583733587E-01
  0.211850529508475E+00 -0.741262543272473E+00  0.774760440455315E-01
  0.211850529508475E+00 -0.635605065171759E+00  0.915977057214925E-01
  0.211850529508475E+00 -0.529610856542781E+00  0.103654888843351E+00
  0.211850529508475E+00 -0.423704436434061E+00  0.113492898762080E+00
  0.211850529508475E+00 -0.317774315082929E+00  0.121099133419331E+00
  0.211850529508475E+00 -0.211850529508475E+00  0.126490589514402E+00
  0.211850529508475E+00 -0.105925053478478E+00  0.129704355936770E+00
  0.211850529508475E+00 -0.790519978293986E-17  0.130771601011252E+00
  0.211850529508475E+00  0.105925053478478E+00  0.129704355936770E+00
  0.211850529508475E+00  0.211850529508475E+00  0.126490589514402E+00
  0.211850529508475E+00  0.317774315082929E+00  0.121099133419331E+00
  0.211850529508475E+00  0.423704436434061E+00  0.113492898762079E+00
  0.211850529508475E+00  0.529610856542781E+00  0.103654888843351E+00
  0.211850529508475E+00  0.635605065171759E+00  0.915977057214925E-01
  0.211850529508475E+00  0.741262543272473E+00  0.774760440455315E-01
  0.211850529508475E+00  0.848039647510822E+00  0.612729583733588E-01
  0.211850529508475E+00  0.955162973124140E+00  0.433870750832435E-01
  0.211850529508475E+00  0.100000000000000E+01  0.355173067229909E-01
  0.317774315082929E+00 -0.100000000000000E+01  0.272336963826993E-01
  0.317774315082929E+00 -0.955162973124140E+00  0.332714255987040E-01
  0.317774315082929E+00 -0.848039647510822E+00  0.470265739726584E-01
  0.317774315082929E+00 -0.741262543272473E+00  0.595429058206504E-01
  0.317774315082929E+00 -0.635605065171759E+00  0.705097662490131E-01
  0.317774315082929E+00 -0.529610856542781E+00  0.799276852612335E-01
  0.317774315082929E+00 -0.423704436434061E+00  0.876567160236163E-01
  0.317774315082929E+00 -0.317774315082929E+00  0.936640641193296E-01
  0.317774315082929E+00 -0.211850529508475E+00  0.979408598001778E-01
  0.317774315082929E+00 -0.105925053478478E+00  0.100498155099450E+00
  0.317774315082929E+00 -0.790519978293986E-17  0.101348773706858E+00
  0.317774315082929E+00  0.105925053478478E+00  0.100498155099450E+00
  0.317774315082929E+00  0.211850529508475E+00  0.979408598001779E-01
  0.317774315082929E+00  0.317774315082929E+00  0.936640641193296E-01
  0.317774315082929E+00  0.423704436434061E+00  0.876567160236162E-01
  0.317774315082929E+00  0.529610856542781E+00  0.799276852612334E-01
  0.317774315082929E+00  0.635605065171759E+00  0.705097662490130E-01
  0.317774315082929E+00  0.741262543272473E+00  0.595429058206504E-01
  0.317774315082929E+00  0.848039647510822E+00  0.470265739726584E-01
  0.317774315082929E+00  0.955162973124140E+00  0.332714255987041E-01
  0.317774315082929E+00  0.100000000000000E+01  0.272336963826994E-01
  0.423704436434061E+00 -0.100000000000000E+01  0.205532890077435E-01
  0.423704436434061E+00 -0.955162973124140E+00  0.251119363785027E-01
  0.423704436434061E+00 -0.848039647510822E+00  0.355165654956200E-01
  0.423704436434061E+00 -0.741262543272473E+00  0.450163275529598E-01
  0.423704436434061E+00 -0.635605065171759E+00  0.533742554812650E-01
  0.423704436434061E+00 -0.529610856542781E+00  0.605838530299142E-01
  0.423704436434061E+00 -0.423704436434061E+00  0.665271616768977E-01
  0.423704436434061E+00 -0.317774315082929E+00  0.711656583872416E-01
  0.423704436434061E+00 -0.211850529508475E+00  0.744792755287009E-01
  0.423704436434061E+00 -0.105925053478478E+00  0.764655101377631E-01
  0.423704436434061E+00 -0.790519978293986E-17  0.771270257398002E-01
  0.423704436434061E+00  0.105925053478478E+00  0.764655101377632E-01
  0.423704436434061E+00  0.211850529508475E+00  0.744792755287009E-01
  0.423704436434061E+00  0.317774315082929E+00  0.711656583872416E-01
  0.423704436434061E+00  0.423704436434061E+00  0.665271616768977E-01
  0.423704436434061E+00  0.529610856542781E+00  0.605838530299142E-01
  0.423704436434061E+00  0.635605065171759E+00  0.533742554812650E-01
  0.423704436434061E+00  0.741262543272473E+00  0.450163275529598E-01
  0.423704436434061E+00  0.848039647510822E+00  0.355165654956200E-01
  0.423704436434061E+00  0.955162973124140E+00  0.251119363785028E-01
  0.423704436434061E+00  0.100000000000000E+01  0.205532890077436E-01
  0.529610856542781E+00 -0.100000000000000E+01  0.151592703954686E-01
  0.529610856542781E+00 -0.955162973124140E+00  0.185226504912760E-01
  0.529610856542781E+00 -0.848039647510822E+00  0.262099807598214E-01
  0.529610856542781E+00 -0.741262543272473E+00  0.332469469066781E-01
  0.529610856542781E+00 -0.635605065171759E+00  0.394575140661735E-01
  0.529610856542781E+00 -0.529610856542781E+00  0.448331467173224E-01
  0.529610856542781E+00 -0.423704436434061E+00  0.492799074206655E-01
  0.529610856542781E+00 -0.317774315082929E+00  0.527614741080487E-01
  0.529610856542781E+00 -0.211850529508475E+00  0.552552224736225E-01
  0.529610856542781E+00 -0.105925053478478E+00  0.567528642335735E-01
  0.529610856542781E+00 -0.790519978293986E-17  0.572521501181053E-01
  0.529610856542781E+00  0.105925053478478E+00  0.567528642335736E-01
  0.529610856542781E+00  0.211850529508475E+00  0.552552224736226E-01
  0.529610856542781E+00  0.317774315082929E+00  0.527614741080487E-01
  0.529610856542781E+00  0.423704436434061E+00  0.492799074206654E-01
  0.529610856542781E+00  0.529610856542781E+00  0.448331467173223E-01
  0.529610856542781E+00  0.635605065171759E+00  0.394575140661735E-01
  0.529610856542781E+00  0.741262543272473E+00  0.332469469066781E-01
  0.529610856542781E+00  0.848039647510822E+00  0.262099807598214E-01
  0.529610856542781E+00  0.955162973124140E+00  0.185226504912760E-01
  0.529610856542781E+00  0.100000000000000E+01  0.151592703954687E-01
  0.635605065171759E+00 -0.100000000000000E+01  0.107665858588428E-01
  0.635605065171759E+00 -0.955162973124140E+00  0.131559516566118E-01
  0.635605065171759E+00 -0.848039647510822E+00  0.186228115705744E-01
  0.635605065171759E+00 -0.741262543272473E+00  0.236368619577025E-01
  0.635605065171759E+00 -0.635605065171759E+00  0.280724698003473E-01
  0.635605065171759E+00 -0.529610856542781E+00  0.319216355855732E-01
  0.635605065171759E+00 -0.423704436434061E+00  0.351139579942274E-01
  0.635605065171759E+00 -0.317774315082929E+00  0.376193727573488E-01
  0.635605065171759E+00 -0.211850529508475E+00  0.394175335298553E-01
  0.635605065171759E+00 -0.105925053478478E+00  0.404989917270965E-01
  0.635605065171759E+00 -0.790519978293986E-17  0.408598014140087E-01
  0.635605065171759E+00  0.105925053478478E+00  0.404989917270966E-01
  0.635605065171759E+00  0.211850529508475E+00  0.394175335298553E-01
  0.635605065171759E+00  0.317774315082929E+00  0.376193727573488E-01
  0.635605065171759E+00  0.423704436434061E+00  0.351139579942274E-01
  0.635605065171759E+00  0.529610856542781E+00  0.319216355855732E-01
  0.635605065171759E+00  0.635605065171759E+00  0.280724698003473E-01
  0.635605065171759E+00  0.741262543272473E+00  0.236368619577025E-01
  0.635605065171759E+00  0.848039647510822E+00  0.186228115705745E-01
  0.635605065171759E+00  0.955162973124140E+00  0.131559516566118E-01
  0.635605065171759E+00  0.100000000000000E+01  0.107665858588428E-01
  0.741262543272473E+00 -0.100000000000000E+01  0.713793441316634E-02
  0.741262543272473E+00 -0.955162973124140E+00  0.872229239058751E-02
  0.741262543272473E+00 -0.848039647510822E+00  0.123500051253080E-01
  0.741262543272473E+00 -0.741262543272473E+00  0.156818272693350E-01
  0.741262543272473E+00 -0.635605065171759E+00  0.186342013561782E-01
  0.741262543272473E+00 -0.529610856542781E+00  0.212009277206837E-01
  0.741262543272473E+00 -0.423704436434061E+00  0.233335955086240E-01
  0.741262543272473E+00 -0.317774315082929E+00  0.250102388643630E-01
  0.741262543272473E+00 -0.211850529508475E+00  0.262153103412607E-01
  0.741262543272473E+00 -0.105925053478478E+00  0.269408185708590E-01
  0.741262543272473E+00 -0.790519978293986E-17  0.271830024558474E-01
  0.741262543272473E+00  0.105925053478478E+00  0.269408185708590E-01
  0.741262543272473E+00  0.211850529508475E+00  0.262153103412608E-01
  0.741262543272473E+00  0.317774315082929E+00  0.250102388643630E-01
  0.741262543272473E+00  0.423704436434061E+00  0.233335955086239E-01
  0.741262543272473E+00  0.529610856542781E+00  0.212009277206837E-01
  0.741262543272473E+00  0.635605065171759E+00  0.186342013561782E-01
  0.741262543272473E+00  0.741262543272473E+00  0.156818272693350E-01
  0.741262543272473E+00  0.848039647510822E+00  0.123500051253080E-01
  0.741262543272473E+00  0.955162973124140E+00  0.872229239058753E-02
  0.741262543272473E+00  0.100000000000000E+01  0.713793441316636E-02
  0.848039647510822E+00 -0.100000000000000E+01  0.399647394198729E-02
  0.848039647510822E+00 -0.955162973124140E+00  0.488364438777430E-02
  0.848039647510822E+00 -0.848039647510822E+00  0.691598599947582E-02
  0.848039647510822E+00 -0.741262543272473E+00  0.878422763596529E-02
  0.848039647510822E+00 -0.635605065171759E+00  0.104414943057964E-01
  0.848039647510822E+00 -0.529610856542781E+00  0.118839940531592E-01
  0.848039647510822E+00 -0.423704436434061E+00  0.130839923758536E-01
  0.848039647510822E+00 -0.317774315082929E+00  0.140284479638105E-01
  0.848039647510822E+00 -0.211850529508475E+00  0.147078996279421E-01
  0.848039647510822E+00 -0.105925053478478E+00  0.151172352494071E-01
  0.848039647510822E+00 -0.790519978293986E-17  0.152539246689382E-01
  0.848039647510822E+00  0.105925053478478E+00  0.151172352494071E-01
  0.848039647510822E+00  0.211850529508475E+00  0.147078996279421E-01
  0.848039647510822E+00  0.317774315082929E+00  0.140284479638105E-01
  0.848039647510822E+00  0.423704436434061E+00  0.130839923758536E-01
  0.848039647510822E+00  0.529610856542781E+00  0.118839940531592E-01
  0.848039647510822E+00  0.635605065171759E+00  0.104414943057964E-01
  0.848039647510822E+00  0.741262543272473E+00  0.878422763596529E-02
  0.848039647510822E+00  0.848039647510822E+00  0.691598599947583E-02
  0.848039647510822E+00  0.955162973124140E+00  0.488364438777431E-02
  0.848039647510822E+00  0.100000000000000E+01  0.399647394198730E-02
  0.955162973124140E+00 -0.100000000000000E+01  0.115165747072088E-02
  0.955162973124140E+00 -0.955162973124140E+00  0.140732555076494E-02
  0.955162973124140E+00 -0.848039647510822E+00  0.199314603686554E-02
  0.955162973124140E+00 -0.741262543272473E+00  0.253188994378746E-02
  0.955162973124140E+00 -0.635605065171759E+00  0.301003743134422E-02
  0.955162973124140E+00 -0.529610856542781E+00  0.342645287033982E-02
  0.955162973124140E+00 -0.423704436434061E+00  0.377305910153247E-02
  0.955162973124140E+00 -0.317774315082929E+00  0.404599731480912E-02
  0.955162973124140E+00 -0.211850529508475E+00  0.424243812152069E-02
  0.955162973124140E+00 -0.105925053478478E+00  0.436082123503454E-02
  0.955162973124140E+00 -0.790519978293986E-17  0.440035943127441E-02
  0.955162973124140E+00  0.105925053478478E+00  0.436082123503455E-02
  0.955162973124140E+00  0.211850529508475E+00  0.424243812152069E-02
  0.955162973124140E+00  0.317774315082929E+00  0.404599731480912E-02
  0.955162973124140E+00  0.423704436434061E+00  0.377305910153247E-02
  0.955162973124140E+00  0.529610856542781E+00  0.342645287033982E-02
  0.955162973124140E+00  0.635605065171759E+00  0.301003743134422E-02
  0.955162973124140E+00  0.741262543272473E+00  0.253188994378746E-02
  0.955162973124140E+00  0.848039647510822E+00  0.199314603686554E-02
  0.955162973124140E+00  0.955162973124140E+00  0.140732555076494E-02
  0.955162973124140E+00  0.100000000000000E+01  0.115165747072088E-02
  0.100000000000000E+01 -0.100000000000000E+01  0.000000000000000E+00
  0.100000000000000E+01 -0.955162973124140E+00  0.000000000000000E+00
  0.100000000000000E+01 -0.848039647510822E+00  0.000000000000000E+00
  0.100000000000000E+01 -0.741262543272473E+00  0.000000000000000E+00
  0.100000000000000E+01 -0.635605065171759E+00  0.000000000000000E+00
  0.100000000000000E+01 -0.529610856542781E+00  0.000000000000000E+00
  0.100000000000000E+01 -0.423704436434061E+00  0.000000000000000E+00