 VARIABLES =  $x$  (d)
 ZONE I=         441 ,DATAPACKING=POINT
 -0.100000000000000E+01 -0.100000000000000E+01  0.169654542966064E+01
 -0.100000000000000E+01 -0.955162973124140E+00  0.121640526484966E+01
 -0.100000000000000E+01 -0.848039647510822E+00  0.100961270062422E+01
 -0.100000000000000E+01 -0.741262543272473E+00  0.999258278488057E+00
 -0.100000000000000E+01 -0.635605065171759E+00  0.999713154242924E+00
 -0.100000000000000E+01 -0.529610856542781E+00  0.999913267894786E+00
 -0.100000000000000E+01 -0.423704436434061E+00  0.999962517063529E+00
 -0.100000000000000E+01 -0.317774315082929E+00  0.999979947204541E+00
 -0.100000000000000E+01 -0.211850529508475E+00  0.999987822801270E+00
 -0.100000000000000E+01 -0.105925053478478E+00  0.999991361823738E+00
 -0.100000000000000E+01 -0.790519978293986E-17  0.999992379826636E+00
 -0.100000000000000E+01  0.105925053478478E+00  0.999991361823738E+00
 -0.100000000000000E+01  0.211850529508475E+00  0.999987822801270E+00
 -0.100000000000000E+01  0.317774315082929E+00  0.999979947204541E+00
 -0.100000000000000E+01  0.423704436434061E+00  0.999962517063529E+00
 -0.100000000000000E+01  0.529610856542781E+00  0.100000000000000E+01
 -0.100000000000000E+01  0.635605065171759E+00  0.999713154242924E+00
 -0.100000000000000E+01  0.741262543272473E+00  0.999258278488057E+00
 -0.100000000000000E+01  0.848039647510822E+00  0.100961270062422E+01
 -0.100000000000000E+01  0.955162973124140E+00  0.121640526484966E+01
 -0.100000000000000E+01  0.100000000000000E+01  0.169654542966064E+01
 -0.955162973124140E+00 -0.100000000000000E+01  0.174321199817830E+00
 -0.955162973124140E+00 -0.955162973124140E+00  0.499273127060001E+00
 -0.955162973124140E+00 -0.848039647510822E+00  0.817627063816234E+00
 -0.955162973124140E+00 -0.741262543272473E+00  0.888178297028519E+00
 -0.955162973124140E+00 -0.635605065171759E+00  0.916464583976757E+00
 -0.955162973124140E+00 -0.529610856542781E+00  0.931788125831110E+00
 -0.955162973124140E+00 -0.423704436434061E+00  0.940891942152536E+00
 -0.955162973124140E+00 -0.317774315082929E+00  0.946509874083435E+00
 -0.955162973124140E+00 -0.211850529508475E+00  0.949921730041215E+00
 -0.955162973124140E+00 -0.105925053478478E+00  0.951768035870456E+00
 -0.955162973124140E+00 -0.790519978293986E-17  0.952353268091865E+00
 -0.955162973124140E+00  0.105925053478478E+00  0.951768035870456E+00
 -0.955162973124140E+00  0.211850529508475E+00  0.949921730041216E+00
 -0.955162973124140E+00  0.317774315082929E+00  0.946509874083435E+00
 -0.955162973124140E+00  0.423704436434061E+00  0.940891942152536E+00
 -0.955162973124140E+00  0.529610856542781E+00  0.931788125831110E+00
 -0.955162973124140E+00  0.635605065171759E+00  0.916464583976757E+00
 -0.955162973124140E+00  0.741262543272473E+00  0.888178297028519E+00
 -0.955162973124140E+00  0.848039647510822E+00  0.817627063816234E+00
 -0.955162973124140E+00  0.955162973124140E+00  0.499273127060001E+00
 -0.955162973124140E+00  0.100000000000000E+01  0.174321199817830E+00
 -0.848039647510822E+00 -0.100000000000000E+01 -0.454537486891366E-01
 -0.848039647510822E+00 -0.955162973124140E+00  0.177456841681541E+00
 -0.848039647510822E+00 -0.848039647510822E+00  0.491688246535692E+00
 -0.848039647510822E+00 -0.741262543272473E+00  0.648086791860548E+00
 -0.848039647510822E+00 -0.635605065171759E+00  0.728610423535897E+00
 -0.848039647510822E+00 -0.529610856542781E+00  0.774940201662698E+00
 -0.848039647510822E+00 -0.423704436434061E+00  0.803277906606489E+00
 -0.848039647510822E+00 -0.317774315082929E+00  0.821091704334147E+00
 -0.848039647510822E+00 -0.211850529508475E+00  0.832033712583644E+00
 -0.848039647510822E+00 -0.105925053478478E+00  0.837993171653506E+00
 -0.848039647510822E+00 -0.790519978293986E-17  0.839887690216381E+00
 -0.848039647510822E+00  0.105925053478478E+00  0.837993171653506E+00
 -0.848039647510822E+00  0.211850529508475E+00  0.832033712583644E+00
 -0.848039647510822E+00  0.317774315082929E+00  0.821091704334147E+00
 -0.848039647510822E+00  0.423704436434061E+00  0.803277906606489E+00
 -0.848039647510822E+00  0.529610856542781E+00  0.774940201662698E+00
 -0.848039647510822E+00  0.635605065171759E+00  0.728610423535897E+00
 -0.848039647510822E+00  0.741262543272473E+00  0.648086791860547E+00
 -0.848039647510822E+00  0.848039647510822E+00  0.491688246535692E+00
 -0.848039647510822E+00  0.955162973124140E+00  0.177456841681541E+00
 -0.848039647510822E+00  0.100000000000000E+01 -0.454537486891366E-01
 -0.741262543272473E+00 -0.100000000000000E+01  0.741214144720880E-03
 -0.741262543272473E+00 -0.955162973124140E+00  0.103487973459617E+00
 -0.741262543272473E+00 -0.848039647510822E+00  0.323737140876614E+00
 -0.741262543272473E+00 -0.741262543272473E+00  0.476128509679515E+00
 -0.741262543272473E+00 -0.635605065171759E+00  0.573174357456224E+00
 -0.741262543272473E+00 -0.529610856542781E+00  0.635828934969015E+00
 -0.741262543272473E+00 -0.423704436434061E+00  0.676633674163332E+00
 -0.741262543272473E+00 -0.317774315082929E+00  0.703225142538164E+00
 -0.741262543272473E+00 -0.211850529508475E+00  0.719910453524972E+00
 -0.741262543272473E+00 -0.105925053478478E+00  0.729108608697238E+00
 -0.741262543272473E+00 -0.790519978293986E-17  0.732048888858841E+00
 -0.741262543272473E+00  0.105925053478478E+00  0.729108608697239E+00
 -0.741262543272473E+00  0.211850529508475E+00  0.719910453524972E+00
 -0.741262543272473E+00  0.317774315082929E+00  0.703225142538164E+00
 -0.741262543272473E+00  0.423704436434061E+00  0.676633674163331E+00
 -0.741262543272473E+00  0.529610856542781E+00  0.635828934969014E+00
 -0.741262543272473E+00  0.635605065171759E+00  0.573174357456223E+00
 -0.741262543272473E+00  0.741262543272473E+00  0.476128509679515E+00
 -0.741262543272473E+00  0.848039647510822E+00  0.323737140876614E+00
 -0.741262543272473E+00  0.955162973124140E+00  0.103487973459617E+00
 -0.741262543272473E+00  0.100000000000000E+01  0.741214144720855E-03
 -0.635605065171759E+00 -0.100000000000000E+01  0.286134639462451E-03
 -0.635605065171759E+00 -0.955162973124140E+00  0.718701170696519E-01
 -0.635605065171759E+00 -0.848039647510822E+00  0.231958085724519E+00
 -0.635605065171759E+00 -0.741262543272473E+00  0.360040922395336E+00
 -0.635605065171759E+00 -0.635605065171759E+00  0.453321183243935E+00
 -0.635605065171759E+00 -0.529610856542781E+00  0.519633441723987E+00
 -0.635605065171759E+00 -0.423704436434061E+00  0.565662801158801E+00
 -0.635605065171759E+00 -0.317774315082929E+00  0.596912058744424E+00
 -0.635605065171759E+00 -0.211850529508475E+00  0.617030705729492E+00
 -0.635605065171759E+00 -0.105925053478478E+00  0.628290375496390E+00
 -0.635605065171759E+00 -0.790519978293986E-17  0.631914945956313E+00
 -0.635605065171759E+00  0.105925053478478E+00  0.628290375496390E+00
 -0.635605065171759E+00  0.211850529508475E+00  0.617030705729492E+00
 -0.635605065171759E+00  0.317774315082929E+00  0.596912058744424E+00
 -0.635605065171759E+00  0.423704436434061E+00  0.565662801158800E+00
 -0.635605065171759E+00  0.529610856542781E+00  0.519633441723987E+00
 -0.635605065171759E+00  0.635605065171759E+00  0.453321183243935E+00
 -0.635605065171759E+00  0.741262543272473E+00  0.360040922395336E+00
 -0.635605065171759E+00  0.848039647510822E+00  0.231958085724519E+00
 -0.635605065171759E+00  0.955162973124140E+00  0.718701170696520E-01
 -0.635605065171759E+00  0.100000000000000E+01  0.286134639462444E-03
 -0.529610856542781E+00 -0.100000000000000E+01  0.000000000000000E+00
 -0.529610856542781E+00 -0.955162973124140E+00  0.532626862628453E-01
 -0.529610856542781E+00 -0.848039647510822E+00  0.174543022053320E+00
 -0.529610856542781E+00 -0.741262543272473E+00  0.278664128868916E+00
 -0.529610856542781E+00 -0.635605065171759E+00  0.360947922662292E+00
 -0.529610856542781E+00 -0.529610856542781E+00  0.423717977087224E+00
 -0.529610856542781E+00 -0.423704436434061E+00  0.469700250862648E+00
 -0.529610856542781E+00 -0.317774315082929E+00  0.502137340164742E+00
 -0.529610856542781E+00 -0.211850529508475E+00  0.523565985137522E+00
 -0.529610856542781E+00 -0.105925053478478E+00  0.535749654301251E+00
 -0.529610856542781E+00 -0.790519978293986E-17  0.539701150859486E+00
 -0.529610856542781E+00  0.105925053478478E+00  0.535749654301251E+00
 -0.529610856542781E+00  0.211850529508475E+00  0.523565985137522E+00
 -0.529610856542781E+00  0.317774315082929E+00  0.502137340164742E+00
 -0.529610856542781E+00  0.423704436434061E+00  0.469700250862647E+00
 -0.529610856542781E+00  0.529610856542781E+00  0.423717977087223E+00
 -0.529610856542781E+00  0.635605065171759E+00  0.360947922662292E+00
 -0.529610856542781E+00  0.741262543272473E+00  0.278664128868916E+00
 -0.529610856542781E+00  0.848039647510822E+00  0.174543022053320E+00
 -0.529610856542781E+00  0.955162973124140E+00  0.532626862628453E-01
 -0.529610856542781E+00  0.100000000000000E+01  0.858048824646929E-04
 -0.423704436434061E+00 -0.100000000000000E+01  0.363023526925159E-04
 -0.423704436434061E+00 -0.955162973124140E+00  0.409312099421405E-01
 -0.423704436434061E+00 -0.848039647510822E+00  0.135322249966650E+00
 -0.423704436434061E+00 -0.741262543272473E+00  0.219521719360627E+00
 -0.423704436434061E+00 -0.635605065171759E+00  0.289481151142214E+00
 -0.423704436434061E+00 -0.529610856542781E+00  0.345531511477947E+00
 -0.423704436434061E+00 -0.423704436434061E+00  0.388336631854014E+00
 -0.423704436434061E+00 -0.317774315082929E+00  0.419520012540430E+00
 -0.423704436434061E+00 -0.211850529508475E+00  0.440599312080114E+00
 -0.423704436434061E+00 -0.105925053478478E+00  0.452761206232519E+00
 -0.423704436434061E+00 -0.790519978293986E-17  0.456733774088438E+00
 -0.423704436434061E+00  0.105925053478478E+00  0.452761206232519E+00
 -0.423704436434061E+00  0.211850529508475E+00  0.440599312080114E+00
 -0.423704436434061E+00  0.317774315082929E+00  0.419520012540430E+00
 -0.423704436434061E+00  0.423704436434061E+00  0.388336631854014E+00
 -0.423704436434061E+00  0.529610856542781E+00  0.345531511477947E+00
 -0.423704436434061E+00  0.635605065171759E+00  0.289481151142213E+00
 -0.423704436434061E+00  0.741262543272473E+00  0.219521719360627E+00
 -0.423704436434061E+00  0.848039647510822E+00  0.135322249966650E+00
 -0.423704436434061E+00  0.955162973124140E+00  0.409312099421405E-01
 -0.423704436434061E+00  0.100000000000000E+01  0.363023526925008E-04
 -0.317774315082929E+00 -0.100000000000000E+01  0.185359333560058E-04
 -0.317774315082929E+00 -0.955162973124140E+00  0.321164726532188E-01
 -0.317774315082929E+00 -0.848039647510822E+00  0.106746154501403E+00
 -0.317774315082929E+00 -0.741262543272473E+00  0.174853425610582E+00
 -0.317774315082929E+00 -0.635605065171759E+00  0.233272039101219E+00
 -0.317774315082929E+00 -0.529610856542781E+00  0.281684293105958E+00
 -0.317774315082929E+00 -0.423704436434061E+00  0.319818786986212E+00
 -0.317774315082929E+00 -0.317774315082929E+00  0.348317567203157E+00
 -0.317774315082929E+00 -0.211850529508475E+00  0.367954353260625E+00
 -0.317774315082929E+00 -0.105925053478478E+00  0.379427892250214E+00
 -0.317774315082929E+00 -0.790519978293986E-17  0.383199103966083E+00
 -0.317774315082929E+00  0.105925053478478E+00  0.379427892250214E+00
 -0.317774315082929E+00  0.211850529508475E+00  0.367954353260625E+00
 -0.317774315082929E+00  0.317774315082929E+00  0.348317567203156E+00
 -0.317774315082929E+00  0.423704436434061E+00  0.319818786986212E+00
 -0.317774315082929E+00  0.529610856542781E+00  0.281684293105958E+00
 -0.317774315082929E+00  0.635605065171759E+00  0.233272039101219E+00
 -0.317774315082929E+00  0.741262543272473E+00  0.174853425610581E+00
 -0.317774315082929E+00  0.848039647510822E+00  0.106746154501403E+00
 -0.317774315082929E+00  0.955162973124140E+00  0.321164726532188E-01
 -0.317774315082929E+00  0.100000000000000E+01  0.185359333559762E-04
 -0.211850529508475E+00 -0.100000000000000E+01  0.101637718263810E-04
 -0.211850529508475E+00 -0.955162973124140E+00  0.254952791107233E-01
 -0.211850529508475E+00 -0.848039647510822E+00  0.850224273860778E-01
 -0.211850529508475E+00 -0.741262543272473E+00  0.140135723795675E+00
 -0.211850529508475E+00 -0.635605065171759E+00  0.188407360447545E+00
 -0.211850529508475E+00 -0.529610856542781E+00  0.229357590011537E+00
 -0.211850529508475E+00 -0.423704436434061E+00  0.262352396919188E+00
 -0.211850529508475E+00 -0.317774315082929E+00  0.287497294647243E+00
 -0.211850529508475E+00 -0.211850529508475E+00  0.305089340160669E+00
 -0.211850529508475E+00 -0.105925053478478E+00  0.315474997537423E+00
 -0.211850529508475E+00 -0.790519978293986E-17  0.318906445531326E+00
 -0.211850529508475E+00  0.105925053478478E+00  0.315474997537424E+00
 -0.211850529508475E+00  0.211850529508475E+00  0.305089340160669E+00
 -0.211850529508475E+00  0.317774315082929E+00  0.287497294647243E+00
 -0.211850529508475E+00  0.423704436434061E+00  0.262352396919188E+00
 -0.211850529508475E+00  0.529610856542781E+00  0.229357590011537E+00
 -0.211850529508475E+00  0.635605065171759E+00  0.188407360447545E+00
 -0.211850529508475E+00  0.741262543272473E+00  0.140135723795675E+00
 -0.211850529508475E+00  0.848039647510822E+00  0.850224273860776E-01
 -0.211850529508475E+00  0.955162973124140E+00  0.254952791107232E-01
 -0.211850529508475E+00  0.100000000000000E+01  0.101637718263662E-04
 -0.105925053478478E+00 -0.100000000000000E+01  0.583289552592674E-05
 -0.105925053478478E+00 -0.955162973124140E+00  0.203528039230562E-01
 -0.105925053478478E+00 -0.848039647510822E+00  0.680212701542647E-01
 -0.105925053478478E+00 -0.741262543272473E+00  0.112576239385360E+00
 -0.105925053478478E+00 -0.635605065171759E+00  0.152155240002907E+00
 -0.105925053478478E+00 -0.529610856542781E+00  0.186285374853314E+00
 -0.105925053478478E+00 -0.423704436434061E+00  0.214240829293344E+00
 -0.105925053478478E+00 -0.317774315082929E+00  0.235861239413415E+00
 -0.105925053478478E+00 -0.211850529508475E+00  0.251167225836352E+00
 -0.105925053478478E+00 -0.105925053478478E+00  0.260277560280891E+00
 -0.105925053478478E+00 -0.790519978293986E-17  0.263300230036801E+00
 -0.105925053478478E+00  0.105925053478478E+00  0.260277560280892E+00
 -0.105925053478478E+00  0.211850529508475E+00  0.251167225836352E+00
 -0.105925053478478E+00  0.317774315082929E+00  0.235861239413415E+00
 -0.105925053478478E+00  0.423704436434061E+00  0.214240829293344E+00
 -0.105925053478478E+00  0.529610856542781E+00  0.186285374853313E+00
 -0.105925053478478E+00  0.635605065171759E+00  0.152155240002907E+00
 -0.105925053478478E+00  0.741262543272473E+00  0.112576239385360E+00
 -0.105925053478478E+00  0.848039647510822E+00  0.680212701542646E-01
 -0.105925053478478E+00  0.955162973124140E+00  0.203528039230562E-01
 -0.105925053478478E+00  0.100000000000000E+01  0.583289552591934E-05
 -0.790519978293986E-17 -0.100000000000000E+01  0.348141432000260E-05
 -0.790519978293986E-17 -0.955162973124140E+00  0.162693115568976E-01
 -0.790519978293986E-17 -0.848039647510822E+00  0.544537982815831E-01
 -0.790519978293986E-17 -0.741262543272473E+00  0.903750317355107E-01
 -0.790519978293986E-17 -0.635605065171759E+00  0.122597239240640E+00
 -0.790519978293986E-17 -0.529610856542781E+00  0.150706890387082E+00
 -0.790519978293986E-17 -0.423704436434061E+00  0.174007482172835E+00
 -0.790519978293986E-17 -0.317774315082929E+00  0.192226484607273E+00
 -0.790519978293986E-17 -0.211850529508475E+00  0.205240948022255E+00
 -0.790519978293986E-17 -0.105925053478478E+00  0.213036544956031E+00
 -0.790519978293986E-17 -0.790519978293986E-17  0.215631455593447E+00
 -0.790519978293986E-17  0.105925053478478E+00  0.213036544956031E+00
 -0.790519978293986E-17  0.211850529508475E+00  0.205240948022255E+00
 -0.790519978293986E-17  0.317774315082929E+00  0.192226484607272E+00
 -0.790519978293986E-17  0.423704436434061E+00  0.174007482172835E+00
 -0.790519978293986E-17  0.529610856542781E+00  0.150706890387082E+00
 -0.790519978293986E-17  0.635605065171759E+00  0.122597239240640E+00
 -0.790519978293986E-17  0.741262543272473E+00  0.903750317355105E-01
 -0.790519978293986E-17  0.848039647510822E+00  0.544537982815830E-01
 -0.790519978293986E-17  0.955162973124140E+00  0.162693115568976E-01
 -0.790519978293986E-17  0.100000000000000E+01  0.348141431999357E-05
  0.105925053478478E+00 -0.100000000000000E+01  0.215066031916944E-05
  0.105925053478478E+00 -0.955162973124140E+00  0.129781146434423E-01
  0.105925053478478E+00 -0.848039647510822E+00  0.434822133483678E-01
  0.105925053478478E+00 -0.741262543272473E+00  0.723069409433762E-01
  0.105925053478478E+00 -0.635605065171759E+00  0.983410999210336E-01
  0.105925053478478E+00 -0.529610856542781E+00  0.121240910275990E+00
  0.105925053478478E+00 -0.423704436434061E+00  0.140388381559115E+00
  0.105925053478478E+00 -0.317774315082929E+00  0.155481989110712E+00
  0.105925053478478E+00 -0.211850529508475E+00  0.166337023048610E+00
  0.105925053478478E+00 -0.105925053478478E+00  0.172870555378367E+00
  0.105925053478478E+00 -0.790519978293986E-17  0.175050813301142E+00
  0.105925053478478E+00  0.105925053478478E+00  0.172870555378367E+00
  0.105925053478478E+00  0.211850529508475E+00  0.166337023048610E+00
  0.105925053478478E+00  0.317774315082929E+00  0.155481989110712E+00
  0.105925053478478E+00  0.423704436434061E+00  0.140388381559115E+00
  0.105925053478478E+00  0.529610856542781E+00  0.121240910275989E+00
  0.105925053478478E+00  0.635605065171759E+00  0.983410999210333E-01
  0.105925053478478E+00  0.741262543272473E+00  0.723069409433760E-01
  0.105925053478478E+00  0.848039647510822E+00  0.434822133483678E-01
  0.105925053478478E+00  0.955162973124140E+00  0.129781146434423E-01
  0.105925053478478E+00  0.100000000000000E+01  0.215066031916559E-05
  0.211850529508475E+00 -0.100000000000000E+01  0.136830544907844E-05
  0.211850529508475E+00 -0.955162973124140E+00  0.102978023967758E-01
  0.211850529508475E+00 -0.848039647510822E+00  0.345266570722285E-01
  0.211850529508475E+00 -0.741262543272473E+00  0.574939499504129E-01
  0.211850529508475E+00 -0.635605065171759E+00  0.783389874148433E-01
  0.211850529508475E+00 -0.529610856542781E+00  0.967836581914901E-01
  0.211850529508475E+00 -0.423704436434061E+00  0.112303764327836E+00
  0.211850529508475E+00 -0.317774315082929E+00  0.124611438512317E+00
  0.211850529508475E+00 -0.211850529508475E+00  0.133507653061349E+00
  0.211850529508475E+00 -0.105925053478478E+00  0.138881661848424E+00
  0.211850529508475E+00 -0.790519978293986E-17  0.140678384313335E+00
  0.211850529508475E+00  0.105925053478478E+00  0.138881661848424E+00
  0.211850529508475E+00  0.211850529508475E+00  0.133507653061349E+00
  0.211850529508475E+00  0.317774315082929E+00  0.124611438512317E+00
  0.211850529508475E+00  0.423704436434061E+00  0.112303764327836E+00
  0.211850529508475E+00  0.529610856542781E+00  0.967836581914899E-01
  0.211850529508475E+00  0.635605065171759E+00  0.783389874148431E-01
  0.211850529508475E+00  0.741262543272473E+00  0.574939499504128E-01
  0.211850529508475E+00  0.848039647510822E+00  0.345266570722284E-01
  0.211850529508475E+00  0.955162973124140E+00  0.102978023967758E-01
  0.211850529508475E+00  0.100000000000000E+01  0.136830544907577E-05
  0.317774315082929E+00 -0.100000000000000E+01  0.891706949577891E-06
  0.317774315082929E+00 -0.955162973124140E+00  0.809714504696298E-02
  0.317774315082929E+00 -0.848039647510822E+00  0.271620299409291E-01
  0.317774315082929E+00 -0.741262543272473E+00  0.452749001688701E-01
  0.317774315082929E+00 -0.635605065171759E+00  0.617715390720297E-01
  0.317774315082929E+00 -0.529610856542781E+00  0.764313049775517E-01
  0.317774315082929E+00 -0.423704436434061E+00  0.888235701553063E-01
  0.317774315082929E+00 -0.317774315082929E+00  0.986941751005695E-01
  0.317774315082929E+00 -0.211850529508475E+00  0.105855568102515E+00
  0.317774315082929E+00 -0.105925053478478E+00  0.110193340415962E+00
  0.317774315082929E+00 -0.790519978293986E-17  0.111645672071243E+00
  0.317774315082929E+00  0.105925053478478E+00  0.110193340415962E+00
  0.317774315082929E+00  0.211850529508475E+00  0.105855568102515E+00
  0.317774315082929E+00  0.317774315082929E+00  0.986941751005694E-01
  0.317774315082929E+00  0.423704436434061E+00  0.888235701553061E-01
  0.317774315082929E+00  0.529610856542781E+00  0.764313049775516E-01
  0.317774315082929E+00  0.635605065171759E+00  0.617715390720295E-01
  0.317774315082929E+00  0.741262543272473E+00  0.452749001688700E-01
  0.317774315082929E+00  0.848039647510822E+00  0.271620299409291E-01
  0.317774315082929E+00  0.955162973124140E+00  0.809714504696297E-02
  0.317774315082929E+00  0.100000000000000E+01  0.891706949575818E-06
  0.423704436434061E+00 -0.100000000000000E+01  0.591082248939890E-06
  0.423704436434061E+00 -0.955162973124140E+00  0.627556358970087E-02
  0.423704436434061E+00 -0.848039647510822E+00  0.210591349716995E-01
  0.423704436434061E+00 -0.741262543272473E+00  0.351271032339537E-01
  0.423704436434061E+00 -0.635605065171759E+00  0.479719458111727E-01
  0.423704436434061E+00 -0.529610856542781E+00  0.594219855909780E-01
  0.423704436434061E+00 -0.423704436434061E+00  0.691334564299971E-01
  0.423704436434061E+00 -0.317774315082929E+00  0.768937327404481E-01
  0.423704436434061E+00 -0.211850529508475E+00  0.825395471980079E-01
  0.423704436434061E+00 -0.105925053478478E+00  0.859661632575620E-01
  0.423704436434061E+00 -0.790519978293986E-17  0.871146383740145E-01
  0.423704436434061E+00  0.105925053478478E+00  0.859661632575620E-01
  0.423704436434061E+00  0.211850529508475E+00  0.825395471980079E-01
  0.423704436434061E+00  0.317774315082929E+00  0.768937327404481E-01
  0.423704436434061E+00  0.423704436434061E+00  0.691334564299970E-01
  0.423704436434061E+00  0.529610856542781E+00  0.594219855909778E-01
  0.423704436434061E+00  0.635605065171759E+00  0.479719458111726E-01
  0.423704436434061E+00  0.741262543272473E+00  0.351271032339536E-01
  0.423704436434061E+00  0.848039647510822E+00  0.210591349716994E-01
  0.423704436434061E+00  0.955162973124140E+00  0.627556358970086E-02
  0.423704436434061E+00  0.100000000000000E+01  0.591082248935375E-06
  0.529610856542781E+00 -0.100000000000000E+01  0.394453530438951E-06
  0.529610856542781E+00 -0.955162973124140E+00  0.475276616024298E-02
  0.529610856542781E+00 -0.848039647510822E+00  0.159531521574362E-01
  0.529610856542781E+00 -0.741262543272473E+00  0.266236287823683E-01
  0.529610856542781E+00 -0.635605065171759E+00  0.363838724424077E-01
  0.529610856542781E+00 -0.529610856542781E+00  0.451036640752910E-01
  0.529610856542781E+00 -0.423704436434061E+00  0.525173333943821E-01
  0.529610856542781E+00 -0.317774315082929E+00  0.584553177028572E-01
  0.529610856542781E+00 -0.211850529508475E+00  0.627840247184427E-01
  0.529610856542781E+00 -0.105925053478478E+00  0.654150897300427E-01
  0.529610856542781E+00 -0.790519978293986E-17  0.662976044101714E-01
  0.529610856542781E+00  0.105925053478478E+00  0.654150897300428E-01
  0.529610856542781E+00  0.211850529508475E+00  0.627840247184427E-01
  0.529610856542781E+00  0.317774315082929E+00  0.584553177028571E-01
  0.529610856542781E+00  0.423704436434061E+00  0.525173333943820E-01
  0.529610856542781E+00  0.529610856542781E+00  0.451036640752909E-01
  0.529610856542781E+00  0.635605065171759E+00  0.363838724424077E-01
  0.529610856542781E+00  0.741262543272473E+00  0.266236287823683E-01
  0.529610856542781E+00  0.848039647510822E+00  0.159531521574361E-01
  0.529610856542781E+00  0.955162973124140E+00  0.475276616024298E-02
  0.529610856542781E+00  0.100000000000000E+01  0.394453530437063E-06
  0.635605065171759E+00 -0.100000000000000E+01  0.260199391522627E-06
  0.635605065171759E+00 -0.955162973124140E+00  0.345956144729262E-02
  0.635605065171759E+00 -0.848039647510822E+00  0.116144865858590E-01
  0.635605065171759E+00 -0.741262543272473E+00  0.193898675295674E-01
  0.635605065171759E+00 -0.635605065171759E+00  0.265109787773736E-01
  0.635605065171759E+00 -0.529610856542781E+00  0.328829899434047E-01
  0.635605065171759E+00 -0.423704436434061E+00  0.383098287387215E-01
  0.635605065171759E+00 -0.317774315082929E+00  0.426636749246881E-01
  0.635605065171759E+00 -0.211850529508475E+00  0.458420998061403E-01
  0.635605065171759E+00 -0.105925053478478E+00  0.477760195991625E-01
  0.635605065171759E+00 -0.790519978293986E-17  0.484250541364570E-01
  0.635605065171759E+00  0.105925053478478E+00  0.477760195991625E-01
  0.635605065171759E+00  0.211850529508475E+00  0.458420998061403E-01
  0.635605065171759E+00  0.317774315082929E+00  0.426636749246880E-01
  0.635605065171759E+00  0.423704436434061E+00  0.383098287387214E-01
  0.635605065171759E+00  0.529610856542781E+00  0.328829899434046E-01
  0.635605065171759E+00  0.635605065171759E+00  0.265109787773735E-01
  0.635605065171759E+00  0.741262543272473E+00  0.193898675295673E-01
  0.635605065171759E+00  0.848039647510822E+00  0.116144865858590E-01
  0.635605065171759E+00  0.955162973124140E+00  0.345956144729261E-02
  0.635605065171759E+00  0.100000000000000E+01  0.260199391520259E-06
  0.741262543272473E+00 -0.100000000000000E+01  0.163920992909480E-06
  0.741262543272473E+00 -0.955162973124140E+00  0.234142605219450E-02
  0.741262543272473E+00 -0.848039647510822E+00  0.786162926742074E-02
  0.741262543272473E+00 -0.741262543272473E+00  0.131277789533380E-01
  0.741262543272473E+00 -0.635605065171759E+00  0.179549185060086E-01
  0.741262543272473E+00 -0.529610856542781E+00  0.222788656682756E-01
  0.741262543272473E+00 -0.423704436434061E+00  0.259657034695953E-01
  0.741262543272473E+00 -0.317774315082929E+00  0.289269111249332E-01
  0.741262543272473E+00 -0.211850529508475E+00  0.310907698791675E-01
  0.741262543272473E+00 -0.105925053478478E+00  0.324083098656524E-01
  0.741262543272473E+00 -0.790519978293986E-17  0.328506496062413E-01
  0.741262543272473E+00  0.105925053478478E+00  0.324083098656525E-01
  0.741262543272473E+00  0.211850529508475E+00  0.310907698791676E-01
  0.741262543272473E+00  0.317774315082929E+00  0.289269111249332E-01
  0.741262543272473E+00  0.423704436434061E+00  0.259657034695952E-01
  0.741262543272473E+00  0.529610856542781E+00  0.222788656682755E-01
  0.741262543272473E+00  0.635605065171759E+00  0.179549185060086E-01
  0.741262543272473E+00  0.741262543272473E+00  0.131277789533380E-01
  0.741262543272473E+00  0.848039647510822E+00  0.786162926742072E-02
  0.741262543272473E+00  0.955162973124140E+00  0.234142605219449E-02
  0.741262543272473E+00  0.100000000000000E+01  0.163920992908961E-06
  0.848039647510822E+00 -0.100000000000000E+01  0.888931825814566E-07
  0.848039647510822E+00 -0.955162973124140E+00  0.133079311941680E-02
  0.848039647510822E+00 -0.848039647510822E+00  0.446864269375480E-02
  0.848039647510822E+00 -0.741262543272473E+00  0.746309209379340E-02
  0.848039647510822E+00 -0.635605065171759E+00  0.102093654301840E-01
  0.848039647510822E+00 -0.529610856542781E+00  0.126709873135424E-01
  0.848039647510822E+00 -0.423704436434061E+00  0.147714173592860E-01
  0.848039647510822E+00 -0.317774315082929E+00  0.164596316294134E-01
  0.848039647510822E+00 -0.211850529508475E+00  0.176940158386876E-01
  0.848039647510822E+00 -0.105925053478478E+00  0.184459465251141E-01
  0.848039647510822E+00 -0.790519978293986E-17  0.186984525093752E-01
  0.848039647510822E+00  0.105925053478478E+00  0.184459465251141E-01
  0.848039647510822E+00  0.211850529508475E+00  0.176940158386876E-01
  0.848039647510822E+00  0.317774315082929E+00  0.164596316294134E-01
  0.848039647510822E+00  0.423704436434061E+00  0.147714173592860E-01
  0.848039647510822E+00  0.529610856542781E+00  0.126709873135423E-01
  0.848039647510822E+00  0.635605065171759E+00  0.102093654301839E-01
  0.848039647510822E+00  0.741262543272473E+00  0.746309209379338E-02
  0.848039647510822E+00  0.848039647510822E+00  0.446864269375479E-02
  0.848039647510822E+00  0.955162973124140E+00  0.133079311941680E-02
  0.848039647510822E+00  0.100000000000000E+01  0.000000000000000E+00
  0.955162973124140E+00 -0.100000000000000E+01  0.252492417830708E-07
  0.955162973124140E+00 -0.955162973124140E+00  0.386425587669234E-03
  0.955162973124140E+00 -0.848039647510822E+00  0.129761531470798E-02
  0.955162973124140E+00 -0.741262543272473E+00  0.216729726927371E-02
  0.955162973124140E+00 -0.635605065171759E+00  0.296509363667258E-02
  0.955162973124140E+00 -0.529610856542781E+00  0.368041385255608E-02
  0.955162973124140E+00 -0.423704436434061E+00  0.429097661132448E-02
  0.955162973124140E+00 -0.317774315082929E+00  0.478187178219411E-02
  0.955162973124140E+00 -0.211850529508475E+00  0.514090256716085E-02
  0.955162973124140E+00 -0.105925053478478E+00  0.535965215913210E-02
  0.955162973124140E+00 -0.790519978293986E-17  0.543311837712959E-02
  0.955162973124140E+00  0.105925053478478E+00  0.535965215913211E-02
  0.955162973124140E+00  0.211850529508475E+00  0.514090256716085E-02
  0.955162973124140E+00  0.317774315082929E+00  0.478187178219411E-02
  0.955162973124140E+00  0.423704436434061E+00  0.429097661132447E-02
  0.955162973124140E+00  0.529610856542781E+00  0.368041385255608E-02
  0.955162973124140E+00  0.635605065171759E+00  0.296509363667257E-02
  0.955162973124140E+00  0.741262543272473E+00  0.216729726927370E-02
  0.955162973124140E+00  0.848039647510822E+00  0.129761531470798E-02
  0.955162973124140E+00  0.955162973124140E+00  0.386425587669234E-03
  0.955162973124140E+00  0.100000000000000E+01  0.252492417829320E-07
  0.100000000000000E+01 -0.100000000000000E+01  0.000000000000000E+00
  0.100000000000000E+01 -0.955162973124140E+00  0.348164508898463E-07
  0.100000000000000E+01 -0.848039647510822E+00  0.113680677972720E-06
  0.100000000000000E+01 -0.741262543272473E+00  0.179391723431991E-06
  0.100000000000000E+01 -0.635605065171759E+00  0.000000000000000E+00
  0.100000000000000E+01 -0.529610856542781E+00  0.253297715008483E-06
  0.100000000000000E+01 -0.423704436434061E+00  0.263095555619320E-06