 VARIABLES =  $x$  (d)
 ZONE I=         441 ,DATAPACKING=POINT
 -0.100000000000000E+01 -0.100000000000000E+01  0.100000000000000E+01
 -0.100000000000000E+01 -0.955162973124140E+00  0.100000000000000E+01
 -0.100000000000000E+01 -0.848039647510822E+00  0.100000000000000E+01
 -0.100000000000000E+01 -0.741262543272473E+00  0.100000000000000E+01
 -0.100000000000000E+01 -0.635605065171759E+00  0.100000000000000E+01
 -0.100000000000000E+01 -0.529610856542781E+00  0.100000000000000E+01
 -0.100000000000000E+01 -0.423704436434061E+00  0.100000000000000E+01
 -0.100000000000000E+01 -0.317774315082929E+00  0.100000000000000E+01
 -0.100000000000000E+01 -0.211850529508475E+00  0.100000000000000E+01
 -0.100000000000000E+01 -0.105925053478478E+00  0.100000000000000E+01
 -0.100000000000000E+01 -0.790519978293986E-17  0.100000000000000E+01
 -0.100000000000000E+01  0.105925053478478E+00  0.100000000000000E+01
 -0.100000000000000E+01  0.211850529508475E+00  0.100000000000000E+01
 -0.100000000000000E+01  0.317774315082929E+00  0.100000000000000E+01
 -0.100000000000000E+01  0.423704436434061E+00  0.100000000000000E+01
 -0.100000000000000E+01  0.529610856542781E+00  0.100000000000000E+01
 -0.100000000000000E+01  0.635605065171759E+00  0.100000000000000E+01
 -0.100000000000000E+01  0.741262543272473E+00  0.100000000000000E+01
 -0.100000000000000E+01  0.848039647510822E+00  0.100000000000000E+01
 -0.100000000000000E+01  0.955162973124140E+00  0.100000000000000E+01
 -0.100000000000000E+01  0.100000000000000E+01  0.100000000000000E+01
 -0.955162973124140E+00 -0.100000000000000E+01  0.689384210673885E+00
 -0.955162973124140E+00 -0.955162973124140E+00  0.804725536111599E+00
 -0.955162973124140E+00 -0.848039647510822E+00  0.894428805495824E+00
 -0.955162973124140E+00 -0.741262543272473E+00  0.922720953787065E+00
 -0.955162973124140E+00 -0.635605065171759E+00  0.936535146562231E+00
 -0.955162973124140E+00 -0.529610856542781E+00  0.944711354816928E+00
 -0.955162973124140E+00 -0.423704436434061E+00  0.949851006680628E+00
 -0.955162973124140E+00 -0.317774315082929E+00  0.953147671250956E+00
 -0.955162973124140E+00 -0.211850529508475E+00  0.955201294317996E+00
 -0.955162973124140E+00 -0.105925053478478E+00  0.956329736571755E+00
 -0.955162973124140E+00 -0.790519978293986E-17  0.956690004976367E+00
 -0.955162973124140E+00  0.105925053478478E+00  0.956329736571756E+00
 -0.955162973124140E+00  0.211850529508475E+00  0.955201294317997E+00
 -0.955162973124140E+00  0.317774315082929E+00  0.953147671250956E+00
 -0.955162973124140E+00  0.423704436434061E+00  0.949851006680628E+00
 -0.955162973124140E+00  0.529610856542781E+00  0.944711354816928E+00
 -0.955162973124140E+00  0.635605065171759E+00  0.936535146562231E+00
 -0.955162973124140E+00  0.741262543272473E+00  0.922720953787065E+00
 -0.955162973124140E+00  0.848039647510822E+00  0.894428805495824E+00
 -0.955162973124140E+00  0.955162973124140E+00  0.804725536111599E+00
 -0.955162973124140E+00  0.100000000000000E+01  0.689384210673885E+00
 -0.848039647510822E+00 -0.100000000000000E+01  0.446998237039693E+00
 -0.848039647510822E+00 -0.955162973124140E+00  0.536089484132600E+00
 -0.848039647510822E+00 -0.848039647510822E+00  0.676070855097173E+00
 -0.848039647510822E+00 -0.741262543272473E+00  0.749258872393546E+00
 -0.848039647510822E+00 -0.635605065171759E+00  0.790403104871078E+00
 -0.848039647510822E+00 -0.529610856542781E+00  0.815788130961932E+00
 -0.848039647510822E+00 -0.423704436434061E+00  0.832091301056572E+00
 -0.848039647510822E+00 -0.317774315082929E+00  0.842686097040714E+00
 -0.848039647510822E+00 -0.211850529508475E+00  0.849338552164124E+00
 -0.848039647510822E+00 -0.105925053478478E+00  0.853010600263838E+00
 -0.848039647510822E+00 -0.790519978293986E-17  0.854185372019104E+00
 -0.848039647510822E+00  0.105925053478478E+00  0.853010600263839E+00
 -0.848039647510822E+00  0.211850529508475E+00  0.849338552164125E+00
 -0.848039647510822E+00  0.317774315082929E+00  0.842686097040714E+00
 -0.848039647510822E+00  0.423704436434061E+00  0.832091301056571E+00
 -0.848039647510822E+00  0.529610856542781E+00  0.815788130961931E+00
 -0.848039647510822E+00  0.635605065171759E+00  0.790403104871078E+00
 -0.848039647510822E+00  0.741262543272473E+00  0.749258872393545E+00
 -0.848039647510822E+00  0.848039647510822E+00  0.676070855097174E+00
 -0.848039647510822E+00  0.955162973124140E+00  0.536089484132601E+00
 -0.848039647510822E+00  0.100000000000000E+01  0.446998237039694E+00
 -0.741262543272473E+00 -0.100000000000000E+01  0.323705589896796E+00
 -0.741262543272473E+00 -0.955162973124140E+00  0.392004496917210E+00
 -0.741262543272473E+00 -0.848039647510822E+00  0.520585874082811E+00
 -0.741262543272473E+00 -0.741262543272473E+00  0.605356924941005E+00
 -0.741262543272473E+00 -0.635605065171759E+00  0.660106059164015E+00
 -0.741262543272473E+00 -0.529610856542781E+00  0.696502785010662E+00
 -0.741262543272473E+00 -0.423704436434061E+00  0.720873688832612E+00
 -0.741262543272473E+00 -0.317774315082929E+00  0.737105765430656E+00
 -0.741262543272473E+00 -0.211850529508475E+00  0.747450259947272E+00
 -0.741262543272473E+00 -0.105925053478478E+00  0.753209284131253E+00
 -0.741262543272473E+00 -0.790519978293986E-17  0.755058981512543E+00
 -0.741262543272473E+00  0.105925053478478E+00  0.753209284131253E+00
 -0.741262543272473E+00  0.211850529508475E+00  0.747450259947273E+00
 -0.741262543272473E+00  0.317774315082929E+00  0.737105765430656E+00
 -0.741262543272473E+00  0.423704436434061E+00  0.720873688832612E+00
 -0.741262543272473E+00  0.529610856542781E+00  0.696502785010662E+00
 -0.741262543272473E+00  0.635605065171759E+00  0.660106059164015E+00
 -0.741262543272473E+00  0.741262543272473E+00  0.605356924941005E+00
 -0.741262543272473E+00  0.848039647510822E+00  0.520585874082812E+00
 -0.741262543272473E+00  0.955162973124140E+00  0.392004496917210E+00
 -0.741262543272473E+00  0.100000000000000E+01  0.323705589896797E+00
 -0.635605065171759E+00 -0.100000000000000E+01  0.248297884033237E+00
 -0.635605065171759E+00 -0.955162973124140E+00  0.301863915718942E+00
 -0.635605065171759E+00 -0.848039647510822E+00  0.410785516088999E+00
 -0.635605065171759E+00 -0.741262543272473E+00  0.491973076927017E+00
 -0.635605065171759E+00 -0.635605065171759E+00  0.549793896378977E+00
 -0.635605065171759E+00 -0.529610856542781E+00  0.590910771621945E+00
 -0.635605065171759E+00 -0.423704436434061E+00  0.619691174755479E+00
 -0.635605065171759E+00 -0.317774315082929E+00  0.639419107997167E+00
 -0.635605065171759E+00 -0.211850529508475E+00  0.652223347860250E+00
 -0.635605065171759E+00 -0.105925053478478E+00  0.659429506882747E+00
 -0.635605065171759E+00 -0.790519978293986E-17  0.661755748334774E+00
 -0.635605065171759E+00  0.105925053478478E+00  0.659429506882748E+00
 -0.635605065171759E+00  0.211850529508475E+00  0.652223347860250E+00
 -0.635605065171759E+00  0.317774315082929E+00  0.639419107997167E+00
 -0.635605065171759E+00  0.423704436434061E+00  0.619691174755479E+00
 -0.635605065171759E+00  0.529610856542781E+00  0.590910771621945E+00
 -0.635605065171759E+00  0.635605065171759E+00  0.549793896378977E+00
 -0.635605065171759E+00  0.741262543272473E+00  0.491973076927017E+00
 -0.635605065171759E+00  0.848039647510822E+00  0.410785516088999E+00
 -0.635605065171759E+00  0.955162973124140E+00  0.301863915718943E+00
 -0.635605065171759E+00  0.100000000000000E+01  0.248297884033238E+00
 -0.529610856542781E+00 -0.100000000000000E+01  0.195912817865729E+00
 -0.529610856542781E+00 -0.955162973124140E+00  0.238654135932105E+00
 -0.529610856542781E+00 -0.848039647510822E+00  0.329213957969852E+00
 -0.529610856542781E+00 -0.741262543272473E+00  0.401690621299015E+00
 -0.529610856542781E+00 -0.635605065171759E+00  0.456863464706753E+00
 -0.529610856542781E+00 -0.529610856542781E+00  0.498251554082612E+00
 -0.529610856542781E+00 -0.423704436434061E+00  0.528396549838768E+00
 -0.529610856542781E+00 -0.317774315082929E+00  0.549648457702956E+00
 -0.529610856542781E+00 -0.211850529508475E+00  0.563705188038886E+00
 -0.529610856542781E+00 -0.105925053478478E+00  0.571708787155282E+00
 -0.529610856542781E+00 -0.790519978293986E-17  0.574306793616347E+00
 -0.529610856542781E+00  0.105925053478478E+00  0.571708787155282E+00
 -0.529610856542781E+00  0.211850529508475E+00  0.563705188038886E+00
 -0.529610856542781E+00  0.317774315082929E+00  0.549648457702956E+00
 -0.529610856542781E+00  0.423704436434061E+00  0.528396549838768E+00
 -0.529610856542781E+00  0.529610856542781E+00  0.498251554082612E+00
 -0.529610856542781E+00  0.635605065171759E+00  0.456863464706753E+00
 -0.529610856542781E+00  0.741262543272473E+00  0.401690621299015E+00
 -0.529610856542781E+00  0.848039647510822E+00  0.329213957969853E+00
 -0.529610856542781E+00  0.955162973124140E+00  0.238654135932106E+00
 -0.529610856542781E+00  0.100000000000000E+01  0.195912817865730E+00
 -0.423704436434061E+00 -0.100000000000000E+01  0.157186398244026E+00
 -0.423704436434061E+00 -0.955162973124140E+00  0.191709948458041E+00
 -0.423704436434061E+00 -0.848039647510822E+00  0.266667742764467E+00
 -0.423704436434061E+00 -0.741262543272473E+00  0.329355068963178E+00
 -0.423704436434061E+00 -0.635605065171759E+00  0.379286515421746E+00
 -0.423704436434061E+00 -0.529610856542781E+00  0.418278321936028E+00
 -0.423704436434061E+00 -0.423704436434061E+00  0.447620105469007E+00
 -0.423704436434061E+00 -0.317774315082929E+00  0.468823729681763E+00
 -0.423704436434061E+00 -0.211850529508475E+00  0.483096447039166E+00
 -0.423704436434061E+00 -0.105925053478478E+00  0.491314100288474E+00
 -0.423704436434061E+00 -0.790519978293986E-17  0.493996050387204E+00
 -0.423704436434061E+00  0.105925053478478E+00  0.491314100288475E+00
 -0.423704436434061E+00  0.211850529508475E+00  0.483096447039167E+00
 -0.423704436434061E+00  0.317774315082929E+00  0.468823729681763E+00
 -0.423704436434061E+00  0.423704436434061E+00  0.447620105469007E+00
 -0.423704436434061E+00  0.529610856542781E+00  0.418278321936028E+00
 -0.423704436434061E+00  0.635605065171759E+00  0.379286515421746E+00
 -0.423704436434061E+00  0.741262543272473E+00  0.329355068963178E+00
 -0.423704436434061E+00  0.848039647510822E+00  0.266667742764468E+00
 -0.423704436434061E+00  0.955162973124140E+00  0.191709948458042E+00
 -0.423704436434061E+00  0.100000000000000E+01  0.157186398244026E+00
 -0.317774315082929E+00 -0.100000000000000E+01  0.127267327906528E+00
 -0.317774315082929E+00 -0.955162973124140E+00  0.155346585655680E+00
 -0.317774315082929E+00 -0.848039647510822E+00  0.217266823445262E+00
 -0.317774315082929E+00 -0.741262543272473E+00  0.270564538172169E+00
 -0.317774315082929E+00 -0.635605065171759E+00  0.314370424235605E+00
 -0.317774315082929E+00 -0.529610856542781E+00  0.349612296065740E+00
 -0.317774315082929E+00 -0.423704436434061E+00  0.376824307803764E+00
 -0.317774315082929E+00 -0.317774315082929E+00  0.396898245146925E+00
 -0.317774315082929E+00 -0.211850529508475E+00  0.410617745183242E+00
 -0.317774315082929E+00 -0.105925053478478E+00  0.418595971542398E+00
 -0.317774315082929E+00 -0.790519978293986E-17  0.421212612121323E+00
 -0.317774315082929E+00  0.105925053478478E+00  0.418595971542399E+00
 -0.317774315082929E+00  0.211850529508475E+00  0.410617745183242E+00
 -0.317774315082929E+00  0.317774315082929E+00  0.396898245146925E+00
 -0.317774315082929E+00  0.423704436434061E+00  0.376824307803764E+00
 -0.317774315082929E+00  0.529610856542781E+00  0.349612296065739E+00
 -0.317774315082929E+00  0.635605065171759E+00  0.314370424235605E+00
 -0.317774315082929E+00  0.741262543272473E+00  0.270564538172169E+00
 -0.317774315082929E+00  0.848039647510822E+00  0.217266823445262E+00
 -0.317774315082929E+00  0.955162973124140E+00  0.155346585655681E+00
 -0.317774315082929E+00  0.100000000000000E+01  0.127267327906529E+00
 -0.211850529508475E+00 -0.100000000000000E+01  0.103487931317823E+00
 -0.211850529508475E+00 -0.955162973124140E+00  0.126397040221699E+00
 -0.211850529508475E+00 -0.848039647510822E+00  0.177437735360692E+00
 -0.211850529508475E+00 -0.741262543272473E+00  0.222244376628050E+00
 -0.211850529508475E+00 -0.635605065171759E+00  0.259898172834383E+00
 -0.211850529508475E+00 -0.529610856542781E+00  0.290865150503977E+00
 -0.211850529508475E+00 -0.423704436434061E+00  0.315257911936968E+00
 -0.211850529508475E+00 -0.317774315082929E+00  0.333553450874112E+00
 -0.211850529508475E+00 -0.211850529508475E+00  0.346216966887332E+00
 -0.211850529508475E+00 -0.105925053478478E+00  0.353643925167636E+00
 -0.211850529508475E+00 -0.790519978293986E-17  0.356090138797492E+00
 -0.211850529508475E+00  0.105925053478478E+00  0.353643925167637E+00
 -0.211850529508475E+00  0.211850529508475E+00  0.346216966887333E+00
 -0.211850529508475E+00  0.317774315082929E+00  0.333553450874112E+00
 -0.211850529508475E+00  0.423704436434061E+00  0.315257911936968E+00
 -0.211850529508475E+00  0.529610856542781E+00  0.290865150503977E+00
 -0.211850529508475E+00  0.635605065171759E+00  0.259898172834383E+00
 -0.211850529508475E+00  0.741262543272473E+00  0.222244376628050E+00
 -0.211850529508475E+00  0.848039647510822E+00  0.177437735360692E+00
 -0.211850529508475E+00  0.955162973124140E+00  0.126397040221699E+00
 -0.211850529508475E+00  0.100000000000000E+01  0.103487931317824E+00
 -0.105925053478478E+00 -0.100000000000000E+01  0.842186845758963E-01
 -0.105925053478478E+00 -0.955162973124140E+00  0.102911395647395E+00
 -0.105925053478478E+00 -0.848039647510822E+00  0.144848589980154E+00
 -0.105925053478478E+00 -0.741262543272473E+00  0.182178262924028E+00
 -0.105925053478478E+00 -0.635605065171759E+00  0.214055042631206E+00
 -0.105925053478478E+00 -0.529610856542781E+00  0.240703560941348E+00
 -0.105925053478478E+00 -0.423704436434061E+00  0.262018413737557E+00
 -0.105925053478478E+00 -0.317774315082929E+00  0.278216727160939E+00
 -0.105925053478478E+00 -0.211850529508475E+00  0.289544386093209E+00
 -0.105925053478478E+00 -0.105925053478478E+00  0.296234637333537E+00
 -0.105925053478478E+00 -0.790519978293986E-17  0.298446035328886E+00
 -0.105925053478478E+00  0.105925053478478E+00  0.296234637333538E+00
 -0.105925053478478E+00  0.211850529508475E+00  0.289544386093209E+00
 -0.105925053478478E+00  0.317774315082929E+00  0.278216727160939E+00
 -0.105925053478478E+00  0.423704436434061E+00  0.262018413737557E+00
 -0.105925053478478E+00  0.529610856542781E+00  0.240703560941348E+00
 -0.105925053478478E+00  0.635605065171759E+00  0.214055042631205E+00
 -0.105925053478478E+00  0.741262543272473E+00  0.182178262924028E+00
 -0.105925053478478E+00  0.848039647510822E+00  0.144848589980155E+00
 -0.105925053478478E+00  0.955162973124140E+00  0.102911395647396E+00
 -0.105925053478478E+00  0.100000000000000E+01  0.842186845758965E-01
 -0.790519978293986E-17 -0.100000000000000E+01  0.684016298553780E-01
 -0.790519978293986E-17 -0.955162973124140E+00  0.836171679185794E-01
 -0.790519978293986E-17 -0.848039647510822E+00  0.117915652078043E+00
 -0.790519978293986E-17 -0.741262543272473E+00  0.148753341899536E+00
 -0.790519978293986E-17 -0.635605065171759E+00  0.175397207439904E+00
 -0.790519978293986E-17 -0.529610856542781E+00  0.197945474528053E+00
 -0.790519978293986E-17 -0.423704436434061E+00  0.216193191685905E+00
 -0.790519978293986E-17 -0.317774315082929E+00  0.230203755953956E+00
 -0.790519978293986E-17 -0.211850529508475E+00  0.240081999813243E+00
 -0.790519978293986E-17 -0.105925053478478E+00  0.245949352911470E+00
 -0.790519978293986E-17 -0.790519978293986E-17  0.247894365456361E+00
 -0.790519978293986E-17  0.105925053478478E+00  0.245949352911471E+00
 -0.790519978293986E-17  0.211850529508475E+00  0.240081999813243E+00
 -0.790519978293986E-17  0.317774315082929E+00  0.230203755953956E+00
 -0.790519978293986E-17  0.423704436434061E+00  0.216193191685905E+00
 -0.790519978293986E-17  0.529610856542781E+00  0.197945474528053E+00
 -0.790519978293986E-17  0.635605065171759E+00  0.175397207439904E+00
 -0.790519978293986E-17  0.741262543272473E+00  0.148753341899536E+00
 -0.790519978293986E-17  0.848039647510822E+00  0.117915652078043E+00
 -0.790519978293986E-17  0.955162973124140E+00  0.836171679185796E-01
 -0.790519978293986E-17  0.100000000000000E+01  0.684016298553782E-01
  0.105925053478478E+00 -0.100000000000000E+01  0.553053112513990E-01
  0.105925053478478E+00 -0.955162973124140E+00  0.676313067348435E-01
  0.105925053478478E+00 -0.848039647510822E+00  0.955060062467899E-01
  0.105925053478478E+00 -0.741262543272473E+00  0.120753233969761E+00
  0.105925053478478E+00 -0.635605065171759E+00  0.142757622314767E+00
  0.105925053478478E+00 -0.529610856542781E+00  0.161551955511523E+00
  0.105925053478478E+00 -0.423704436434061E+00  0.176898534986817E+00
  0.105925053478478E+00 -0.317774315082929E+00  0.188775969718757E+00
  0.105925053478478E+00 -0.211850529508475E+00  0.197204365703696E+00
  0.105925053478478E+00 -0.105925053478478E+00  0.202233171344491E+00
  0.105925053478478E+00 -0.790519978293986E-17  0.203904072033167E+00
  0.105925053478478E+00  0.105925053478478E+00  0.202233171344491E+00
  0.105925053478478E+00  0.211850529508475E+00  0.197204365703696E+00
  0.105925053478478E+00  0.317774315082929E+00  0.188775969718757E+00
  0.105925053478478E+00  0.423704436434061E+00  0.176898534986817E+00
  0.105925053478478E+00  0.529610856542781E+00  0.161551955511522E+00
  0.105925053478478E+00  0.635605065171759E+00  0.142757622314766E+00
  0.105925053478478E+00  0.741262543272473E+00  0.120753233969761E+00
  0.105925053478478E+00  0.848039647510822E+00  0.955060062467901E-01
  0.105925053478478E+00  0.955162973124140E+00  0.676313067348436E-01
  0.105925053478478E+00  0.100000000000000E+01  0.553053112513991E-01
  0.211850529508475E+00 -0.100000000000000E+01  0.443950005584042E-01
  0.211850529508475E+00 -0.955162973124140E+00  0.543064488653949E-01
  0.211850529508475E+00 -0.848039647510822E+00  0.767690491464528E-01
  0.211850529508475E+00 -0.741262543272473E+00  0.972259742549966E-01
  0.211850529508475E+00 -0.635605065171759E+00  0.115171904506361E+00
  0.211850529508475E+00 -0.529610856542781E+00  0.130606991379970E+00
  0.211850529508475E+00 -0.423704436434061E+00  0.143297160795454E+00
  0.211850529508475E+00 -0.317774315082929E+00  0.153179429360062E+00
  0.211850529508475E+00 -0.211850529508475E+00  0.160227394303490E+00
  0.211850529508475E+00 -0.105925053478478E+00  0.164447503892272E+00
  0.211850529508475E+00 -0.790519978293986E-17  0.165852271610456E+00
  0.211850529508475E+00  0.105925053478478E+00  0.164447503892272E+00
  0.211850529508475E+00  0.211850529508475E+00  0.160227394303490E+00
  0.211850529508475E+00  0.317774315082929E+00  0.153179429360062E+00
  0.211850529508475E+00  0.423704436434061E+00  0.143297160795454E+00
  0.211850529508475E+00  0.529610856542781E+00  0.130606991379970E+00
  0.211850529508475E+00  0.635605065171759E+00  0.115171904506361E+00
  0.211850529508475E+00  0.741262543272473E+00  0.972259742549966E-01
  0.211850529508475E+00  0.848039647510822E+00  0.767690491464529E-01
  0.211850529508475E+00  0.955162973124140E+00  0.543064488653950E-01
  0.211850529508475E+00  0.100000000000000E+01  0.443950005584043E-01
  0.317774315082929E+00 -0.100000000000000E+01  0.352587144476667E-01
  0.317774315082929E+00 -0.955162973124140E+00  0.431427490379393E-01
  0.317774315082929E+00 -0.848039647510822E+00  0.610353449725666E-01
  0.317774315082929E+00 -0.741262543272473E+00  0.773972471402920E-01
  0.317774315082929E+00 -0.635605065171759E+00  0.918213474671924E-01
  0.317774315082929E+00 -0.529610856542781E+00  0.104292992011420E+00
  0.317774315082929E+00 -0.423704436434061E+00  0.114600469385639E+00
  0.317774315082929E+00 -0.317774315082929E+00  0.122665434500132E+00
  0.317774315082929E+00 -0.211850529508475E+00  0.128439778379938E+00
  0.317774315082929E+00 -0.105925053478478E+00  0.131906848755971E+00
  0.317774315082929E+00 -0.790519978293986E-17  0.133062601859781E+00
  0.317774315082929E+00  0.105925053478478E+00  0.131906848755971E+00
  0.317774315082929E+00  0.211850529508475E+00  0.128439778379938E+00
  0.317774315082929E+00  0.317774315082929E+00  0.122665434500131E+00
  0.317774315082929E+00  0.423704436434061E+00  0.114600469385639E+00
  0.317774315082929E+00  0.529610856542781E+00  0.104292992011420E+00
  0.317774315082929E+00  0.635605065171759E+00  0.918213474671923E-01
  0.317774315082929E+00  0.741262543272473E+00  0.773972471402920E-01
  0.317774315082929E+00  0.848039647510822E+00  0.610353449725667E-01
  0.317774315082929E+00  0.955162973124140E+00  0.431427490379394E-01
  0.317774315082929E+00  0.100000000000000E+01  0.352587144476668E-01
  0.423704436434061E+00 -0.100000000000000E+01  0.275622261349218E-01
  0.423704436434061E+00 -0.955162973124140E+00  0.337340120643617E-01
  0.423704436434061E+00 -0.848039647510822E+00  0.477524877235371E-01
  0.423704436434061E+00 -0.741262543272473E+00  0.606111656057545E-01
  0.423704436434061E+00 -0.635605065171759E+00  0.719888316033067E-01
  0.423704436434061E+00 -0.529610856542781E+00  0.818657255363179E-01
  0.423704436434061E+00 -0.423704436434061E+00  0.900612030240741E-01
  0.423704436434061E+00 -0.317774315082929E+00  0.964969508097259E-01
  0.423704436434061E+00 -0.211850529508475E+00  0.101118623507734E+00
  0.423704436434061E+00 -0.105925053478478E+00  0.103899516110075E+00
  0.423704436434061E+00 -0.790519978293986E-17  0.104827556722033E+00
  0.423704436434061E+00  0.105925053478478E+00  0.103899516110075E+00
  0.423704436434061E+00  0.211850529508475E+00  0.101118623507734E+00
  0.423704436434061E+00  0.317774315082929E+00  0.964969508097259E-01
  0.423704436434061E+00  0.423704436434061E+00  0.900612030240740E-01
  0.423704436434061E+00  0.529610856542781E+00  0.818657255363178E-01
  0.423704436434061E+00  0.635605065171759E+00  0.719888316033066E-01
  0.423704436434061E+00  0.741262543272473E+00  0.606111656057545E-01
  0.423704436434061E+00  0.848039647510822E+00  0.477524877235372E-01
  0.423704436434061E+00  0.955162973124140E+00  0.337340120643618E-01
  0.423704436434061E+00  0.100000000000000E+01  0.275622261349218E-01
  0.529610856542781E+00 -0.100000000000000E+01  0.210253751714845E-01
  0.529610856542781E+00 -0.955162973124140E+00  0.257393251156566E-01
  0.529610856542781E+00 -0.848039647510822E+00  0.364514485853754E-01
  0.529610856542781E+00 -0.741262543272473E+00  0.462998374910791E-01
  0.529610856542781E+00 -0.635605065171759E+00  0.550379419799271E-01
  0.529610856542781E+00 -0.529610856542781E+00  0.626461234376160E-01
  0.529610856542781E+00 -0.423704436434061E+00  0.689779738371880E-01
  0.529610856542781E+00 -0.317774315082929E+00  0.739638635599708E-01
  0.529610856542781E+00 -0.211850529508475E+00  0.775524744984692E-01
  0.529610856542781E+00 -0.105925053478478E+00  0.797152583634432E-01
  0.529610856542781E+00 -0.790519978293986E-17  0.804376303685932E-01
  0.529610856542781E+00  0.105925053478478E+00  0.797152583634433E-01
  0.529610856542781E+00  0.211850529508475E+00  0.775524744984693E-01
  0.529610856542781E+00  0.317774315082929E+00  0.739638635599708E-01
  0.529610856542781E+00  0.423704436434061E+00  0.689779738371880E-01
  0.529610856542781E+00  0.529610856542781E+00  0.626461234376160E-01
  0.529610856542781E+00  0.635605065171759E+00  0.550379419799270E-01
  0.529610856542781E+00  0.741262543272473E+00  0.462998374910791E-01
  0.529610856542781E+00  0.848039647510822E+00  0.364514485853755E-01
  0.529610856542781E+00  0.955162973124140E+00  0.257393251156567E-01
  0.529610856542781E+00  0.100000000000000E+01  0.210253751714845E-01
  0.635605065171759E+00 -0.100000000000000E+01  0.153944514075333E-01
  0.635605065171759E+00 -0.955162973124140E+00  0.188496161913386E-01
  0.635605065171759E+00 -0.848039647510822E+00  0.267029189088944E-01
  0.635605065171759E+00 -0.741262543272473E+00  0.339350758493850E-01
  0.635605065171759E+00 -0.635605065171759E+00  0.403648203562927E-01
  0.635605065171759E+00 -0.529610856542781E+00  0.459753922181287E-01
  0.635605065171759E+00 -0.423704436434061E+00  0.506549912170835E-01
  0.635605065171759E+00 -0.317774315082929E+00  0.543472726372211E-01
  0.635605065171759E+00 -0.211850529508475E+00  0.570092496218700E-01
  0.635605065171759E+00 -0.105925053478478E+00  0.586154872916810E-01
  0.635605065171759E+00 -0.790519978293986E-17  0.591523061476298E-01
  0.635605065171759E+00  0.105925053478478E+00  0.586154872916810E-01
  0.635605065171759E+00  0.211850529508475E+00  0.570092496218700E-01
  0.635605065171759E+00  0.317774315082929E+00  0.543472726372211E-01
  0.635605065171759E+00  0.423704436434061E+00  0.506549912170834E-01
  0.635605065171759E+00  0.529610856542781E+00  0.459753922181286E-01
  0.635605065171759E+00  0.635605065171759E+00  0.403648203562927E-01
  0.635605065171759E+00  0.741262543272473E+00  0.339350758493849E-01
  0.635605065171759E+00  0.848039647510822E+00  0.267029189088944E-01
  0.635605065171759E+00  0.955162973124140E+00  0.188496161913386E-01
  0.635605065171759E+00  0.100000000000000E+01  0.153944514075333E-01
  0.741262543272473E+00 -0.100000000000000E+01  0.104653190254914E-01
  0.741262543272473E+00 -0.955162973124140E+00  0.128161524230206E-01
  0.741262543272473E+00 -0.848039647510822E+00  0.181597676757377E-01
  0.741262543272473E+00 -0.741262543272473E+00  0.230864576655431E-01
  0.741262543272473E+00 -0.635605065171759E+00  0.274726631202112E-01
  0.741262543272473E+00 -0.529610856542781E+00  0.313058847971921E-01
  0.741262543272473E+00 -0.423704436434061E+00  0.345079442166204E-01
  0.741262543272473E+00 -0.317774315082929E+00  0.370379781374038E-01
  0.741262543272473E+00 -0.211850529508475E+00  0.388641588431764E-01
  0.741262543272473E+00 -0.105925053478478E+00  0.399669993784274E-01
  0.741262543272473E+00 -0.790519978293986E-17  0.403357392558762E-01
  0.741262543272473E+00  0.105925053478478E+00  0.399669993784275E-01
  0.741262543272473E+00  0.211850529508475E+00  0.388641588431764E-01
  0.741262543272473E+00  0.317774315082929E+00  0.370379781374038E-01
  0.741262543272473E+00  0.423704436434061E+00  0.345079442166204E-01
  0.741262543272473E+00  0.529610856542781E+00  0.313058847971920E-01
  0.741262543272473E+00  0.635605065171759E+00  0.274726631202112E-01
  0.741262543272473E+00  0.741262543272473E+00  0.230864576655430E-01
  0.741262543272473E+00  0.848039647510822E+00  0.181597676757377E-01
  0.741262543272473E+00  0.955162973124140E+00  0.128161524230206E-01
  0.741262543272473E+00  0.100000000000000E+01  0.104653190254914E-01
  0.848039647510822E+00 -0.100000000000000E+01  0.596606226869855E-02
  0.848039647510822E+00 -0.955162973124140E+00  0.730700786834768E-02
  0.848039647510822E+00 -0.848039647510822E+00  0.103550800058205E-01
  0.848039647510822E+00 -0.741262543272473E+00  0.131674066318557E-01
  0.848039647510822E+00 -0.635605065171759E+00  0.156734336180195E-01
  0.848039647510822E+00 -0.529610856542781E+00  0.178656397806807E-01
  0.848039647510822E+00 -0.423704436434061E+00  0.196986692466371E-01
  0.848039647510822E+00 -0.317774315082929E+00  0.211482938858970E-01
  0.848039647510822E+00 -0.211850529508475E+00  0.221954148636465E-01
  0.848039647510822E+00 -0.105925053478478E+00  0.228281147800742E-01
  0.848039647510822E+00 -0.790519978293986E-17  0.230397198690325E-01
  0.848039647510822E+00  0.105925053478478E+00  0.228281147800742E-01
  0.848039647510822E+00  0.211850529508475E+00  0.221954148636465E-01
  0.848039647510822E+00  0.317774315082929E+00  0.211482938858970E-01
  0.848039647510822E+00  0.423704436434061E+00  0.196986692466371E-01
  0.848039647510822E+00  0.529610856542781E+00  0.178656397806807E-01
  0.848039647510822E+00  0.635605065171759E+00  0.156734336180195E-01
  0.848039647510822E+00  0.741262543272473E+00  0.131674066318557E-01
  0.848039647510822E+00  0.848039647510822E+00  0.103550800058206E-01
  0.848039647510822E+00  0.955162973124140E+00  0.730700786834770E-02
  0.848039647510822E+00  0.100000000000000E+01  0.596606226869857E-02
  0.955162973124140E+00 -0.100000000000000E+01  0.173490070163727E-02
  0.955162973124140E+00 -0.955162973124140E+00  0.212495341718861E-02
  0.955162973124140E+00 -0.848039647510822E+00  0.301156113768955E-02
  0.955162973124140E+00 -0.741262543272473E+00  0.382987611852645E-02
  0.955162973124140E+00 -0.635605065171759E+00  0.455936643802655E-02
  0.955162973124140E+00 -0.529610856542781E+00  0.519779210742599E-02
  0.955162973124140E+00 -0.423704436434061E+00  0.573185771194663E-02
  0.955162973124140E+00 -0.317774315082929E+00  0.615439162820863E-02
  0.955162973124140E+00 -0.211850529508475E+00  0.645971040517976E-02
  0.955162973124140E+00 -0.105925053478478E+00  0.664423844879634E-02
  0.955162973124140E+00 -0.790519978293986E-17  0.670596144758215E-02
  0.955162973124140E+00  0.105925053478478E+00  0.664423844879635E-02
  0.955162973124140E+00  0.211850529508475E+00  0.645971040517977E-02
  0.955162973124140E+00  0.317774315082929E+00  0.615439162820863E-02
  0.955162973124140E+00  0.423704436434061E+00  0.573185771194662E-02
  0.955162973124140E+00  0.529610856542781E+00  0.519779210742598E-02
  0.955162973124140E+00  0.635605065171759E+00  0.455936643802655E-02
  0.955162973124140E+00  0.741262543272473E+00  0.382987611852645E-02
  0.955162973124140E+00  0.848039647510822E+00  0.301156113768955E-02
  0.955162973124140E+00  0.955162973124140E+00  0.212495341718862E-02
  0.955162973124140E+00  0.100000000000000E+01  0.173490070163727E-02
  0.100000000000000E+01 -0.100000000000000E+01  0.100000000000000E-36
  0.100000000000000E+01 -0.955162973124140E+00  0.100000000000000E-36
  0.100000000000000E+01 -0.848039647510822E+00  0.100000000000000E-36
  0.100000000000000E+01 -0.741262543272473E+00  0.100000000000000E-36
  0.100000000000000E+01 -0.635605065171759E+00  0.100000000000000E-36
  0.100000000000000E+01 -0.529610856542781E+00  0.100000000000000E-36
  0.100000000000000E+01 -0.423704436434061E+00  0.100000000000000E-36