 VARIABLES =  $x$  t=  2.0  $x$2  t=  2.7  $x$3  t=  3.3  $x$4  t=  4.0
 ZONE I=          41 ,DATAPACKING=POINT
 -0.100000000000000E+01  0.000000000000000E+00 -0.100000000000000E+01  0.000000000000000E+00 -0.100000000000000E+01  0.000000000000000E+00 -0.100000000000000E+01  0.000000000000000E+00
 -0.978226538838537E+00 -0.466777969106634E-06 -0.978226538838537E+00 -0.403376339390774E-01 -0.978226538838537E+00  0.428275525276093E-01 -0.978226538838537E+00  0.678193096119228E-06
 -0.926206016243102E+00 -0.260140159738505E-05 -0.926206016243102E+00 -0.137730924447750E+00 -0.926206016243102E+00  0.145852106026462E+00 -0.926206016243102E+00  0.343637178625257E-05
 -0.874353623385414E+00 -0.104025056154679E-04 -0.874353623385414E+00 -0.236323402551422E+00 -0.874353623385414E+00  0.248845971072246E+00 -0.874353623385414E+00  0.122429836372104E-04
 -0.823044935991433E+00 -0.382766471943391E-04 -0.823044935991433E+00 -0.331327507963756E+00 -0.823044935991433E+00  0.345776869574820E+00 -0.823044935991433E+00  0.419531387793469E-04
 -0.771572727718090E+00 -0.131572824134229E-03 -0.771572727718090E+00 -0.414826301152839E+00 -0.771572727718090E+00  0.427671015006878E+00 -0.771572727718090E+00  0.138679521711445E-03
 -0.720143150808558E+00 -0.417427299804663E-03 -0.720143150808558E+00 -0.474302109866883E+00 -0.720143150808558E+00  0.481843149598854E+00 -0.720143150808558E+00  0.431000939224066E-03
 -0.668702063952709E+00 -0.122167647209375E-02 -0.668702063952709E+00 -0.499132263368632E+00 -0.668702063952709E+00  0.498943420543277E+00 -0.668702063952709E+00  0.124651794886600E-02
 -0.617264054974525E+00 -0.329771601611819E-02 -0.617264054974525E+00 -0.484510661925984E+00 -0.617264054974525E+00  0.476516291126663E+00 -0.617264054974525E+00  0.333927428692356E-02
 -0.565825220835437E+00 -0.821574022058545E-02 -0.565825220835437E+00 -0.433993853313507E+00 -0.565825220835437E+00  0.420457595568211E+00 -0.565825220835437E+00  0.827720290556895E-02
 -0.514386607765533E+00 -0.189003472026345E-01 -0.514386607765533E+00 -0.358644029729195E+00 -0.514386607765533E+00  0.343065079411792E+00 -0.514386607765533E+00  0.189822119852495E-01
 -0.462947935458022E+00 -0.401633007641635E-01 -0.462947935458022E+00 -0.273350195624682E+00 -0.462947935458022E+00  0.258957897942817E+00 -0.462947935458022E+00  0.402733683829040E-01
 -0.411509279023015E+00 -0.788469910841105E-01 -0.411509279023015E+00 -0.192139163716742E+00 -0.411509279023015E+00  0.180840326856694E+00 -0.411509279023015E+00  0.790201767997073E-01
 -0.360070618334971E+00 -0.142999806712885E+00 -0.360070618334971E+00 -0.124592428932336E+00 -0.360070618334971E+00  0.116788335918559E+00 -0.360070618334971E+00  0.143304898666844E+00
 -0.308631958786524E+00 -0.239579117239785E+00 -0.308631958786524E+00 -0.745989941475120E-01 -0.308631958786524E+00  0.696839603039413E-01 -0.308631958786524E+00  0.240076072238462E+00
 -0.257193298932723E+00 -0.370758963533370E+00 -0.257193298932723E+00 -0.413092029553475E-01 -0.257193298932723E+00  0.383515428693409E-01 -0.257193298932723E+00  0.371402984484014E+00
 -0.205754639160742E+00 -0.529958542274314E+00 -0.205754639160742E+00 -0.212121338820526E-01 -0.205754639160742E+00  0.194193487391972E-01 -0.205754639160742E+00  0.530522872516070E+00
 -0.154315979366837E+00 -0.699672327012734E+00 -0.154315979366837E+00 -0.101519092867808E-01 -0.154315979366837E+00  0.901609494007832E-02 -0.154315979366837E+00  0.699798903443639E+00
 -0.102877319578805E+00 -0.853215390318116E+00 -0.102877319578805E+00 -0.460499022318634E-02 -0.102877319578805E+00  0.384223454745670E-02 -0.102877319578805E+00  0.852622370851067E+00
 -0.514386597892067E-01 -0.961055482194619E+00 -0.514386597892067E-01 -0.215719264172575E-02 -0.514386597892067E-01  0.159568580874526E-02 -0.514386597892067E-01  0.959773908372148E+00
  0.102440335561230E-17 -0.999946419100887E+00  0.102440335561230E-17 -0.147967908137743E-02  0.102440335561230E-17  0.983344442042954E-03  0.102440335561230E-17  0.998379839698988E+00
  0.514386597892067E-01 -0.961055482194614E+00  0.514386597892067E-01 -0.215719264172582E-02  0.514386597892067E-01  0.159568580874378E-02  0.514386597892067E-01  0.959773908372148E+00
  0.102877319578805E+00 -0.853215390318107E+00  0.102877319578805E+00 -0.460499022318654E-02  0.102877319578805E+00  0.384223454745420E-02  0.102877319578805E+00  0.852622370851067E+00
  0.154315979366837E+00 -0.699672327012722E+00  0.154315979366837E+00 -0.101519092867811E-01  0.154315979366837E+00  0.901609494007401E-02  0.154315979366837E+00  0.699798903443639E+00
  0.205754639160742E+00 -0.529958542274299E+00  0.205754639160742E+00 -0.212121338820534E-01  0.205754639160742E+00  0.194193487391919E-01  0.205754639160742E+00  0.530522872516070E+00
  0.257193298932723E+00 -0.370758963533352E+00  0.257193298932723E+00 -0.413092029553476E-01  0.257193298932723E+00  0.383515428693341E-01  0.257193298932723E+00  0.371402984484013E+00
  0.308631958786524E+00 -0.239579117239768E+00  0.308631958786524E+00 -0.745989941475132E-01  0.308631958786524E+00  0.696839603039338E-01  0.308631958786524E+00  0.240076072238461E+00
  0.360070618334971E+00 -0.142999806712867E+00  0.360070618334971E+00 -0.124592428932337E+00  0.360070618334971E+00  0.116788335918550E+00  0.360070618334971E+00  0.143304898666843E+00
  0.411509279023015E+00 -0.788469910840930E-01  0.411509279023015E+00 -0.192139163716743E+00  0.411509279023015E+00  0.180840326856685E+00  0.411509279023015E+00  0.790201767997073E-01
  0.462947935458022E+00 -0.401633007641464E-01  0.462947935458022E+00 -0.273350195624684E+00  0.462947935458022E+00  0.258957897942808E+00  0.462947935458022E+00  0.402733683829041E-01
  0.514386607765533E+00 -0.189003472026187E-01  0.514386607765533E+00 -0.358644029729196E+00  0.514386607765533E+00  0.343065079411784E+00  0.514386607765533E+00  0.189822119852490E-01
  0.565825220835437E+00 -0.821574022057070E-02  0.565825220835437E+00 -0.433993853313507E+00  0.565825220835437E+00  0.420457595568204E+00  0.565825220835437E+00  0.827720290556878E-02
  0.617264054974525E+00 -0.329771601610494E-02  0.617264054974525E+00 -0.484510661925985E+00  0.617264054974525E+00  0.476516291126657E+00  0.617264054974525E+00  0.333927428692353E-02
  0.668702063952709E+00 -0.122167647208204E-02  0.668702063952709E+00 -0.499132263368632E+00  0.668702063952709E+00  0.498943420543271E+00  0.668702063952709E+00  0.124651794886532E-02
  0.720143150808558E+00 -0.417427299794431E-03  0.720143150808558E+00 -0.474302109866884E+00  0.720143150808558E+00  0.481843149598851E+00  0.720143150808558E+00  0.431000939224292E-03
  0.771572727718090E+00 -0.131572824125452E-03  0.771572727718090E+00 -0.414826301152839E+00  0.771572727718090E+00  0.427671015006874E+00  0.771572727718090E+00  0.138679521711558E-03
  0.823044935991433E+00 -0.382766471876453E-04  0.823044935991433E+00 -0.331327507963756E+00  0.823044935991433E+00  0.345776869574817E+00  0.823044935991433E+00  0.419531387785668E-04
  0.874353623385414E+00 -0.104025056104054E-04  0.874353623385414E+00 -0.236323402551422E+00  0.874353623385414E+00  0.248845971072245E+00  0.874353623385414E+00  0.122429836374780E-04
  0.926206016243102E+00 -0.260140159434271E-05  0.926206016243102E+00 -0.137730924447750E+00  0.926206016243102E+00  0.145852106026461E+00  0.926206016243102E+00  0.343637178610939E-05
  0.978226538838537E+00 -0.466777968242527E-06  0.978226538838537E+00 -0.403376339390773E-01  0.978226538838537E+00  0.428275525276088E-01  0.978226538838537E+00  0.678193096026924E-06
  0.100000000000000E+01  0.000000000000000E+00  0.100000000000000E+01  0.000000000000000E+00  0.100000000000000E+01  0.000000000000000E+00  0.100000000000000E+01  0.000000000000000E+00
