 VARIABLES =  $x$  (b)
 ZONE I=         441 ,DATAPACKING=POINT
 -0.100000000000000E+01 -0.100000000000000E+01  0.000000000000000E+00
 -0.100000000000000E+01 -0.975060457533844E+00  0.000000000000000E+00
 -0.100000000000000E+01 -0.904141431802467E+00  0.000000000000000E+00
 -0.100000000000000E+01 -0.798443291855323E+00  0.000000000000000E+00
 -0.100000000000000E+01 -0.675337414025638E+00  0.000000000000000E+00
 -0.100000000000000E+01 -0.560523029461074E+00  0.000000000000000E+00
 -0.100000000000000E+01 -0.449536557024029E+00  0.000000000000000E+00
 -0.100000000000000E+01 -0.337641464801303E+00  0.000000000000000E+00
 -0.100000000000000E+01 -0.224951994744527E+00  0.000000000000000E+00
 -0.100000000000000E+01 -0.112343328682423E+00  0.000000000000000E+00
 -0.100000000000000E+01  0.414186545644071E-17  0.000000000000000E+00
 -0.100000000000000E+01  0.112343328682423E+00  0.000000000000000E+00
 -0.100000000000000E+01  0.224951994744527E+00  0.000000000000000E+00
 -0.100000000000000E+01  0.337641464801303E+00  0.000000000000000E+00
 -0.100000000000000E+01  0.449536557024029E+00  0.000000000000000E+00
 -0.100000000000000E+01  0.560523029461074E+00  0.000000000000000E+00
 -0.100000000000000E+01  0.675337414025638E+00  0.000000000000000E+00
 -0.100000000000000E+01  0.798443291855323E+00  0.000000000000000E+00
 -0.100000000000000E+01  0.904141431802467E+00  0.000000000000000E+00
 -0.100000000000000E+01  0.975060457533844E+00  0.000000000000000E+00
 -0.100000000000000E+01  0.100000000000000E+01  0.000000000000000E+00
 -0.975060457533844E+00 -0.100000000000000E+01  0.000000000000000E+00
 -0.975060457533844E+00 -0.975060457533844E+00  0.351200240327445E-03
 -0.975060457533844E+00 -0.904141431802467E+00  0.144377903049092E-02
 -0.975060457533844E+00 -0.798443291855323E+00  0.370949999068088E-02
 -0.975060457533844E+00 -0.675337414025638E+00  0.781928588270063E-02
 -0.975060457533844E+00 -0.560523029461074E+00  0.129279650715952E-01
 -0.975060457533844E+00 -0.449536557024029E+00  0.181886852612430E-01
 -0.975060457533844E+00 -0.337641464801303E+00  0.227711474542426E-01
 -0.975060457533844E+00 -0.224951994744527E+00  0.259834373262613E-01
 -0.975060457533844E+00 -0.112343328682423E+00  0.277173119651796E-01
 -0.975060457533844E+00  0.414186545644071E-17  0.282414146194321E-01
 -0.975060457533844E+00  0.112343328682423E+00  0.277173119651796E-01
 -0.975060457533844E+00  0.224951994744527E+00  0.259834373262613E-01
 -0.975060457533844E+00  0.337641464801303E+00  0.227711474542426E-01
 -0.975060457533844E+00  0.449536557024029E+00  0.181886852612430E-01
 -0.975060457533844E+00  0.560523029461074E+00  0.129279650715952E-01
 -0.975060457533844E+00  0.675337414025638E+00  0.781928588270065E-02
 -0.975060457533844E+00  0.798443291855323E+00  0.370949999068089E-02
 -0.975060457533844E+00  0.904141431802467E+00  0.144377903049092E-02
 -0.975060457533844E+00  0.975060457533844E+00  0.351200240327449E-03
 -0.975060457533844E+00  0.100000000000000E+01  0.000000000000000E+00
 -0.904141431802467E+00 -0.100000000000000E+01  0.000000000000000E+00
 -0.904141431802467E+00 -0.975060457533844E+00  0.144377903049092E-02
 -0.904141431802467E+00 -0.904141431802467E+00  0.590907489575470E-02
 -0.904141431802467E+00 -0.798443291855323E+00  0.149804134892123E-01
 -0.904141431802467E+00 -0.675337414025638E+00  0.309502942180579E-01
 -0.904141431802467E+00 -0.560523029461074E+00  0.501726029121962E-01
 -0.904141431802467E+00 -0.449536557024029E+00  0.692845450008587E-01
 -0.904141431802467E+00 -0.337641464801303E+00  0.852512793548985E-01
 -0.904141431802467E+00 -0.224951994744527E+00  0.958781284742318E-01
 -0.904141431802467E+00 -0.112343328682423E+00  0.101281183548939E+00
 -0.904141431802467E+00  0.414186545644071E-17  0.102838717823552E+00
 -0.904141431802467E+00  0.112343328682423E+00  0.101281183548939E+00
 -0.904141431802467E+00  0.224951994744527E+00  0.958781284742320E-01
 -0.904141431802467E+00  0.337641464801303E+00  0.852512793548986E-01
 -0.904141431802467E+00  0.449536557024029E+00  0.692845450008589E-01
 -0.904141431802467E+00  0.560523029461074E+00  0.501726029121963E-01
 -0.904141431802467E+00  0.675337414025638E+00  0.309502942180579E-01
 -0.904141431802467E+00  0.798443291855323E+00  0.149804134892124E-01
 -0.904141431802467E+00  0.904141431802467E+00  0.590907489575473E-02
 -0.904141431802467E+00  0.975060457533844E+00  0.144377903049093E-02
 -0.904141431802467E+00  0.100000000000000E+01  0.000000000000000E+00
 -0.798443291855323E+00 -0.100000000000000E+01  0.000000000000000E+00
 -0.798443291855323E+00 -0.975060457533844E+00  0.370949999068088E-02
 -0.798443291855323E+00 -0.904141431802467E+00  0.149804134892123E-01
 -0.798443291855323E+00 -0.798443291855323E+00  0.364435173967033E-01
 -0.798443291855323E+00 -0.675337414025638E+00  0.706145642173161E-01
 -0.798443291855323E+00 -0.560523029461074E+00  0.107175734972781E+00
 -0.798443291855323E+00 -0.449536557024029E+00  0.138676332953386E+00
 -0.798443291855323E+00 -0.337641464801303E+00  0.160200800702587E+00
 -0.798443291855323E+00 -0.224951994744527E+00  0.170521277265451E+00
 -0.798443291855323E+00 -0.112343328682423E+00  0.173344215850730E+00
 -0.798443291855323E+00  0.414186545644071E-17  0.173580125832482E+00
 -0.798443291855323E+00  0.112343328682423E+00  0.173344215850730E+00
 -0.798443291855323E+00  0.224951994744527E+00  0.170521277265452E+00
 -0.798443291855323E+00  0.337641464801303E+00  0.160200800702588E+00
 -0.798443291855323E+00  0.449536557024029E+00  0.138676332953387E+00
 -0.798443291855323E+00  0.560523029461074E+00  0.107175734972781E+00
 -0.798443291855323E+00  0.675337414025638E+00  0.706145642173163E-01
 -0.798443291855323E+00  0.798443291855323E+00  0.364435173967034E-01
 -0.798443291855323E+00  0.904141431802467E+00  0.149804134892124E-01
 -0.798443291855323E+00  0.975060457533844E+00  0.370949999068091E-02
 -0.798443291855323E+00  0.100000000000000E+01  0.000000000000000E+00
 -0.675337414025638E+00 -0.100000000000000E+01  0.000000000000000E+00
 -0.675337414025638E+00 -0.975060457533844E+00  0.781928588270063E-02
 -0.675337414025638E+00 -0.904141431802467E+00  0.309502942180579E-01
 -0.675337414025638E+00 -0.798443291855323E+00  0.706145642173161E-01
 -0.675337414025638E+00 -0.675337414025638E+00  0.123007851104973E+00
 -0.675337414025638E+00 -0.560523029461074E+00  0.165895205333451E+00
 -0.675337414025638E+00 -0.449536557024029E+00  0.189014428327631E+00
 -0.675337414025638E+00 -0.337641464801303E+00  0.190576043691556E+00
 -0.675337414025638E+00 -0.224951994744527E+00  0.177724123947863E+00
 -0.675337414025638E+00 -0.112343328682423E+00  0.163130642222104E+00
 -0.675337414025638E+00  0.414186545644071E-17  0.157041493540230E+00
 -0.675337414025638E+00  0.112343328682423E+00  0.163130642222105E+00
 -0.675337414025638E+00  0.224951994744527E+00  0.177724123947864E+00
 -0.675337414025638E+00  0.337641464801303E+00  0.190576043691557E+00
 -0.675337414025638E+00  0.449536557024029E+00  0.189014428327632E+00
 -0.675337414025638E+00  0.560523029461074E+00  0.165895205333451E+00
 -0.675337414025638E+00  0.675337414025638E+00  0.123007851104973E+00
 -0.675337414025638E+00  0.798443291855323E+00  0.706145642173163E-01
 -0.675337414025638E+00  0.904141431802467E+00  0.309502942180580E-01
 -0.675337414025638E+00  0.975060457533844E+00  0.781928588270069E-02
 -0.675337414025638E+00  0.100000000000000E+01  0.000000000000000E+00
 -0.560523029461074E+00 -0.100000000000000E+01  0.000000000000000E+00
 -0.560523029461074E+00 -0.975060457533844E+00  0.129279650715952E-01
 -0.560523029461074E+00 -0.904141431802467E+00  0.501726029121962E-01
 -0.560523029461074E+00 -0.798443291855323E+00  0.107175734972781E+00
 -0.560523029461074E+00 -0.675337414025638E+00  0.165895205333451E+00
 -0.560523029461074E+00 -0.560523029461074E+00  0.193336343728869E+00
 -0.560523029461074E+00 -0.449536557024029E+00  0.183747928262219E+00
 -0.560523029461074E+00 -0.337641464801303E+00  0.146130818242143E+00
 -0.560523029461074E+00 -0.224951994744527E+00  0.100280206924533E+00
 -0.560523029461074E+00 -0.112343328682423E+00  0.657217858027656E-01
 -0.560523029461074E+00  0.414186545644071E-17  0.532194421664713E-01
 -0.560523029461074E+00  0.112343328682423E+00  0.657217858027662E-01
 -0.560523029461074E+00  0.224951994744527E+00  0.100280206924534E+00
 -0.560523029461074E+00  0.337641464801303E+00  0.146130818242144E+00
 -0.560523029461074E+00  0.449536557024029E+00  0.183747928262220E+00
 -0.560523029461074E+00  0.560523029461074E+00  0.193336343728870E+00
 -0.560523029461074E+00  0.675337414025638E+00  0.165895205333451E+00
 -0.560523029461074E+00  0.798443291855323E+00  0.107175734972781E+00
 -0.560523029461074E+00  0.904141431802467E+00  0.501726029121964E-01
 -0.560523029461074E+00  0.975060457533844E+00  0.129279650715953E-01
 -0.560523029461074E+00  0.100000000000000E+01  0.000000000000000E+00
 -0.449536557024029E+00 -0.100000000000000E+01  0.000000000000000E+00
 -0.449536557024029E+00 -0.975060457533844E+00  0.181886852612430E-01
 -0.449536557024029E+00 -0.904141431802467E+00  0.692845450008587E-01
 -0.449536557024029E+00 -0.798443291855323E+00  0.138676332953386E+00
 -0.449536557024029E+00 -0.675337414025638E+00  0.189014428327631E+00
 -0.449536557024029E+00 -0.560523029461074E+00  0.183747928262219E+00
 -0.449536557024029E+00 -0.449536557024029E+00  0.131077359826283E+00
 -0.449536557024029E+00 -0.337641464801303E+00  0.558483715147572E-01
 -0.449536557024029E+00 -0.224951994744527E+00 -0.121110034728994E-01
 -0.449536557024029E+00 -0.112343328682423E+00 -0.549528252795992E-01
 -0.449536557024029E+00  0.414186545644071E-17 -0.690429771153249E-01
 -0.449536557024029E+00  0.112343328682423E+00 -0.549528252795990E-01
 -0.449536557024029E+00  0.224951994744527E+00 -0.121110034728989E-01
 -0.449536557024029E+00  0.337641464801303E+00  0.558483715147580E-01
 -0.449536557024029E+00  0.449536557024029E+00  0.131077359826284E+00
 -0.449536557024029E+00  0.560523029461074E+00  0.183747928262220E+00
 -0.449536557024029E+00  0.675337414025638E+00  0.189014428327632E+00
 -0.449536557024029E+00  0.798443291855323E+00  0.138676332953387E+00
 -0.449536557024029E+00  0.904141431802467E+00  0.692845450008591E-01
 -0.449536557024029E+00  0.975060457533844E+00  0.181886852612431E-01
 -0.449536557024029E+00  0.100000000000000E+01  0.000000000000000E+00
 -0.337641464801303E+00 -0.100000000000000E+01  0.000000000000000E+00
 -0.337641464801303E+00 -0.975060457533844E+00  0.227711474542426E-01
 -0.337641464801303E+00 -0.904141431802467E+00  0.852512793548985E-01
 -0.337641464801303E+00 -0.798443291855323E+00  0.160200800702587E+00
 -0.337641464801303E+00 -0.675337414025638E+00  0.190576043691556E+00
 -0.337641464801303E+00 -0.560523029461074E+00  0.146130818242143E+00
 -0.337641464801303E+00 -0.449536557024029E+00  0.558483715147572E-01
 -0.337641464801303E+00 -0.337641464801303E+00 -0.399188971236565E-01
 -0.337641464801303E+00 -0.224951994744527E+00 -0.108999786991853E+00
 -0.337641464801303E+00 -0.112343328682423E+00 -0.144326982167830E+00
 -0.337641464801303E+00  0.414186545644071E-17 -0.154340175735757E+00
 -0.337641464801303E+00  0.112343328682423E+00 -0.144326982167830E+00
 -0.337641464801303E+00  0.224951994744527E+00 -0.108999786991852E+00
 -0.337641464801303E+00  0.337641464801303E+00 -0.399188971236558E-01
 -0.337641464801303E+00  0.449536557024029E+00  0.558483715147583E-01
 -0.337641464801303E+00  0.560523029461074E+00  0.146130818242144E+00
 -0.337641464801303E+00  0.675337414025638E+00  0.190576043691557E+00
 -0.337641464801303E+00  0.798443291855323E+00  0.160200800702588E+00
 -0.337641464801303E+00  0.904141431802467E+00  0.852512793548988E-01
 -0.337641464801303E+00  0.975060457533844E+00  0.227711474542427E-01
 -0.337641464801303E+00  0.100000000000000E+01  0.000000000000000E+00
 -0.224951994744527E+00 -0.100000000000000E+01  0.000000000000000E+00
 -0.224951994744527E+00 -0.975060457533844E+00  0.259834373262613E-01
 -0.224951994744527E+00 -0.904141431802467E+00  0.958781284742318E-01
 -0.224951994744527E+00 -0.798443291855323E+00  0.170521277265451E+00
 -0.224951994744527E+00 -0.675337414025638E+00  0.177724123947863E+00
 -0.224951994744527E+00 -0.560523029461074E+00  0.100280206924533E+00
 -0.224951994744527E+00 -0.449536557024029E+00 -0.121110034728994E-01
 -0.224951994744527E+00 -0.337641464801303E+00 -0.108999786991853E+00
 -0.224951994744527E+00 -0.224951994744527E+00 -0.163362910136559E+00
 -0.224951994744527E+00 -0.112343328682423E+00 -0.182466569127031E+00
 -0.224951994744527E+00  0.414186545644071E-17 -0.185872362570135E+00
 -0.224951994744527E+00  0.112343328682423E+00 -0.182466569127031E+00
 -0.224951994744527E+00  0.224951994744527E+00 -0.163362910136559E+00
 -0.224951994744527E+00  0.337641464801303E+00 -0.108999786991852E+00
 -0.224951994744527E+00  0.449536557024029E+00 -0.121110034728983E-01
 -0.224951994744527E+00  0.560523029461074E+00  0.100280206924535E+00
 -0.224951994744527E+00  0.675337414025638E+00  0.177724123947864E+00
 -0.224951994744527E+00  0.798443291855323E+00  0.170521277265452E+00
 -0.224951994744527E+00  0.904141431802467E+00  0.958781284742321E-01
 -0.224951994744527E+00  0.975060457533844E+00  0.259834373262614E-01
 -0.224951994744527E+00  0.100000000000000E+01  0.000000000000000E+00
 -0.112343328682423E+00 -0.100000000000000E+01  0.000000000000000E+00
 -0.112343328682423E+00 -0.975060457533844E+00  0.277173119651796E-01
 -0.112343328682423E+00 -0.904141431802467E+00  0.101281183548939E+00
 -0.112343328682423E+00 -0.798443291855323E+00  0.173344215850730E+00
 -0.112343328682423E+00 -0.675337414025638E+00  0.163130642222104E+00
 -0.112343328682423E+00 -0.560523029461074E+00  0.657217858027656E-01
 -0.112343328682423E+00 -0.449536557024029E+00 -0.549528252795992E-01
 -0.112343328682423E+00 -0.337641464801303E+00 -0.144326982167830E+00
 -0.112343328682423E+00 -0.224951994744527E+00 -0.182466569127031E+00
 -0.112343328682423E+00 -0.112343328682423E+00 -0.187615569005726E+00
 -0.112343328682423E+00  0.414186545644071E-17 -0.185822621663354E+00
 -0.112343328682423E+00  0.112343328682423E+00 -0.187615569005727E+00
 -0.112343328682423E+00  0.224951994744527E+00 -0.182466569127031E+00
 -0.112343328682423E+00  0.337641464801303E+00 -0.144326982167830E+00
 -0.112343328682423E+00  0.449536557024029E+00 -0.549528252795982E-01
 -0.112343328682423E+00  0.560523029461074E+00  0.657217858027672E-01
 -0.112343328682423E+00  0.675337414025638E+00  0.163130642222105E+00
 -0.112343328682423E+00  0.798443291855323E+00  0.173344215850730E+00
 -0.112343328682423E+00  0.904141431802467E+00  0.101281183548939E+00
 -0.112343328682423E+00  0.975060457533844E+00  0.277173119651797E-01
 -0.112343328682423E+00  0.100000000000000E+01  0.000000000000000E+00
  0.414186545644071E-17 -0.100000000000000E+01  0.000000000000000E+00
  0.414186545644071E-17 -0.975060457533844E+00  0.282414146194321E-01
  0.414186545644071E-17 -0.904141431802467E+00  0.102838717823552E+00
  0.414186545644071E-17 -0.798443291855323E+00  0.173580125832482E+00
  0.414186545644071E-17 -0.675337414025638E+00  0.157041493540230E+00
  0.414186545644071E-17 -0.560523029461074E+00  0.532194421664713E-01
  0.414186545644071E-17 -0.449536557024029E+00 -0.690429771153249E-01
  0.414186545644071E-17 -0.337641464801303E+00 -0.154340175735757E+00
  0.414186545644071E-17 -0.224951994744527E+00 -0.185872362570135E+00
  0.414186545644071E-17 -0.112343328682423E+00 -0.185822621663354E+00
  0.414186545644071E-17  0.414186545644071E-17 -0.182172806219556E+00
  0.414186545644071E-17  0.112343328682423E+00 -0.185822621663354E+00
  0.414186545644071E-17  0.224951994744527E+00 -0.185872362570136E+00
  0.414186545644071E-17  0.337641464801303E+00 -0.154340175735757E+00
  0.414186545644071E-17  0.449536557024029E+00 -0.690429771153240E-01
  0.414186545644071E-17  0.560523029461074E+00  0.532194421664727E-01
  0.414186545644071E-17  0.675337414025638E+00  0.157041493540232E+00
  0.414186545644071E-17  0.798443291855323E+00  0.173580125832483E+00
  0.414186545644071E-17  0.904141431802467E+00  0.102838717823553E+00
  0.414186545644071E-17  0.975060457533844E+00  0.282414146194322E-01
  0.414186545644071E-17  0.100000000000000E+01  0.000000000000000E+00
  0.112343328682423E+00 -0.100000000000000E+01  0.000000000000000E+00
  0.112343328682423E+00 -0.975060457533844E+00  0.277173119651796E-01
  0.112343328682423E+00 -0.904141431802467E+00  0.101281183548939E+00
  0.112343328682423E+00 -0.798443291855323E+00  0.173344215850730E+00
  0.112343328682423E+00 -0.675337414025638E+00  0.163130642222105E+00
  0.112343328682423E+00 -0.560523029461074E+00  0.657217858027662E-01
  0.112343328682423E+00 -0.449536557024029E+00 -0.549528252795990E-01
  0.112343328682423E+00 -0.337641464801303E+00 -0.144326982167830E+00
  0.112343328682423E+00 -0.224951994744527E+00 -0.182466569127031E+00
  0.112343328682423E+00 -0.112343328682423E+00 -0.187615569005727E+00
  0.112343328682423E+00  0.414186545644071E-17 -0.185822621663354E+00
  0.112343328682423E+00  0.112343328682423E+00 -0.187615569005727E+00
  0.112343328682423E+00  0.224951994744527E+00 -0.182466569127032E+00
  0.112343328682423E+00  0.337641464801303E+00 -0.144326982167830E+00
  0.112343328682423E+00  0.449536557024029E+00 -0.549528252795980E-01
  0.112343328682423E+00  0.560523029461074E+00  0.657217858027676E-01
  0.112343328682423E+00  0.675337414025638E+00  0.163130642222106E+00
  0.112343328682423E+00  0.798443291855323E+00  0.173344215850731E+00
  0.112343328682423E+00  0.904141431802467E+00  0.101281183548940E+00
  0.112343328682423E+00  0.975060457533844E+00  0.277173119651798E-01
  0.112343328682423E+00  0.100000000000000E+01  0.000000000000000E+00
  0.224951994744527E+00 -0.100000000000000E+01  0.000000000000000E+00
  0.224951994744527E+00 -0.975060457533844E+00  0.259834373262613E-01
  0.224951994744527E+00 -0.904141431802467E+00  0.958781284742320E-01
  0.224951994744527E+00 -0.798443291855323E+00  0.170521277265452E+00
  0.224951994744527E+00 -0.675337414025638E+00  0.177724123947864E+00
  0.224951994744527E+00 -0.560523029461074E+00  0.100280206924534E+00
  0.224951994744527E+00 -0.449536557024029E+00 -0.121110034728989E-01
  0.224951994744527E+00 -0.337641464801303E+00 -0.108999786991852E+00
  0.224951994744527E+00 -0.224951994744527E+00 -0.163362910136559E+00
  0.224951994744527E+00 -0.112343328682423E+00 -0.182466569127031E+00
  0.224951994744527E+00  0.414186545644071E-17 -0.185872362570136E+00
  0.224951994744527E+00  0.112343328682423E+00 -0.182466569127032E+00
  0.224951994744527E+00  0.224951994744527E+00 -0.163362910136559E+00
  0.224951994744527E+00  0.337641464801303E+00 -0.108999786991852E+00
  0.224951994744527E+00  0.449536557024029E+00 -0.121110034728979E-01
  0.224951994744527E+00  0.560523029461074E+00  0.100280206924535E+00
  0.224951994744527E+00  0.675337414025638E+00  0.177724123947865E+00
  0.224951994744527E+00  0.798443291855323E+00  0.170521277265452E+00
  0.224951994744527E+00  0.904141431802467E+00  0.958781284742325E-01
  0.224951994744527E+00  0.975060457533844E+00  0.259834373262615E-01
  0.224951994744527E+00  0.100000000000000E+01  0.000000000000000E+00
  0.337641464801303E+00 -0.100000000000000E+01  0.000000000000000E+00
  0.337641464801303E+00 -0.975060457533844E+00  0.227711474542426E-01
  0.337641464801303E+00 -0.904141431802467E+00  0.852512793548986E-01
  0.337641464801303E+00 -0.798443291855323E+00  0.160200800702588E+00
  0.337641464801303E+00 -0.675337414025638E+00  0.190576043691557E+00
  0.337641464801303E+00 -0.560523029461074E+00  0.146130818242144E+00
  0.337641464801303E+00 -0.449536557024029E+00  0.558483715147580E-01
  0.337641464801303E+00 -0.337641464801303E+00 -0.399188971236558E-01
  0.337641464801303E+00 -0.224951994744527E+00 -0.108999786991852E+00
  0.337641464801303E+00 -0.112343328682423E+00 -0.144326982167830E+00
  0.337641464801303E+00  0.414186545644071E-17 -0.154340175735757E+00
  0.337641464801303E+00  0.112343328682423E+00 -0.144326982167830E+00
  0.337641464801303E+00  0.224951994744527E+00 -0.108999786991852E+00
  0.337641464801303E+00  0.337641464801303E+00 -0.399188971236553E-01
  0.337641464801303E+00  0.449536557024029E+00  0.558483715147591E-01
  0.337641464801303E+00  0.560523029461074E+00  0.146130818242145E+00
  0.337641464801303E+00  0.675337414025638E+00  0.190576043691558E+00
  0.337641464801303E+00  0.798443291855323E+00  0.160200800702588E+00
  0.337641464801303E+00  0.904141431802467E+00  0.852512793548990E-01
  0.337641464801303E+00  0.975060457533844E+00  0.227711474542427E-01
  0.337641464801303E+00  0.100000000000000E+01  0.000000000000000E+00
  0.449536557024029E+00 -0.100000000000000E+01  0.000000000000000E+00
  0.449536557024029E+00 -0.975060457533844E+00  0.181886852612430E-01
  0.449536557024029E+00 -0.904141431802467E+00  0.692845450008589E-01
  0.449536557024029E+00 -0.798443291855323E+00  0.138676332953387E+00
  0.449536557024029E+00 -0.675337414025638E+00  0.189014428327632E+00
  0.449536557024029E+00 -0.560523029461074E+00  0.183747928262220E+00
  0.449536557024029E+00 -0.449536557024029E+00  0.131077359826284E+00
  0.449536557024029E+00 -0.337641464801303E+00  0.558483715147583E-01
  0.449536557024029E+00 -0.224951994744527E+00 -0.121110034728983E-01
  0.449536557024029E+00 -0.112343328682423E+00 -0.549528252795982E-01
  0.449536557024029E+00  0.414186545644071E-17 -0.690429771153240E-01
  0.449536557024029E+00  0.112343328682423E+00 -0.549528252795980E-01
  0.449536557024029E+00  0.224951994744527E+00 -0.121110034728979E-01
  0.449536557024029E+00  0.337641464801303E+00  0.558483715147591E-01
  0.449536557024029E+00  0.449536557024029E+00  0.131077359826285E+00
  0.449536557024029E+00  0.560523029461074E+00  0.183747928262221E+00
  0.449536557024029E+00  0.675337414025638E+00  0.189014428327633E+00
  0.449536557024029E+00  0.798443291855323E+00  0.138676332953387E+00
  0.449536557024029E+00  0.904141431802467E+00  0.692845450008592E-01
  0.449536557024029E+00  0.975060457533844E+00  0.181886852612431E-01
  0.449536557024029E+00  0.100000000000000E+01  0.000000000000000E+00
  0.560523029461074E+00 -0.100000000000000E+01  0.000000000000000E+00
  0.560523029461074E+00 -0.975060457533844E+00  0.129279650715952E-01
  0.560523029461074E+00 -0.904141431802467E+00  0.501726029121963E-01
  0.560523029461074E+00 -0.798443291855323E+00  0.107175734972781E+00
  0.560523029461074E+00 -0.675337414025638E+00  0.165895205333451E+00
  0.560523029461074E+00 -0.560523029461074E+00  0.193336343728870E+00
  0.560523029461074E+00 -0.449536557024029E+00  0.183747928262220E+00
  0.560523029461074E+00 -0.337641464801303E+00  0.146130818242144E+00
  0.560523029461074E+00 -0.224951994744527E+00  0.100280206924535E+00
  0.560523029461074E+00 -0.112343328682423E+00  0.657217858027672E-01
  0.560523029461074E+00  0.414186545644071E-17  0.532194421664727E-01
  0.560523029461074E+00  0.112343328682423E+00  0.657217858027676E-01
  0.560523029461074E+00  0.224951994744527E+00  0.100280206924535E+00
  0.560523029461074E+00  0.337641464801303E+00  0.146130818242145E+00
  0.560523029461074E+00  0.449536557024029E+00  0.183747928262221E+00
  0.560523029461074E+00  0.560523029461074E+00  0.193336343728870E+00
  0.560523029461074E+00  0.675337414025638E+00  0.165895205333452E+00
  0.560523029461074E+00  0.798443291855323E+00  0.107175734972781E+00
  0.560523029461074E+00  0.904141431802467E+00  0.501726029121965E-01
  0.560523029461074E+00  0.975060457533844E+00  0.129279650715953E-01
  0.560523029461074E+00  0.100000000000000E+01  0.000000000000000E+00
  0.675337414025638E+00 -0.100000000000000E+01  0.000000000000000E+00
  0.675337414025638E+00 -0.975060457533844E+00  0.781928588270065E-02
  0.675337414025638E+00 -0.904141431802467E+00  0.309502942180579E-01
  0.675337414025638E+00 -0.798443291855323E+00  0.706145642173163E-01
  0.675337414025638E+00 -0.675337414025638E+00  0.123007851104973E+00
  0.675337414025638E+00 -0.560523029461074E+00  0.165895205333451E+00
  0.675337414025638E+00 -0.449536557024029E+00  0.189014428327632E+00
  0.675337414025638E+00 -0.337641464801303E+00  0.190576043691557E+00
  0.675337414025638E+00 -0.224951994744527E+00  0.177724123947864E+00
  0.675337414025638E+00 -0.112343328682423E+00  0.163130642222105E+00
  0.675337414025638E+00  0.414186545644071E-17  0.157041493540232E+00
  0.675337414025638E+00  0.112343328682423E+00  0.163130642222106E+00
  0.675337414025638E+00  0.224951994744527E+00  0.177724123947865E+00
  0.675337414025638E+00  0.337641464801303E+00  0.190576043691558E+00
  0.675337414025638E+00  0.449536557024029E+00  0.189014428327633E+00
  0.675337414025638E+00  0.560523029461074E+00  0.165895205333452E+00
  0.675337414025638E+00  0.675337414025638E+00  0.123007851104973E+00
  0.675337414025638E+00  0.798443291855323E+00  0.706145642173164E-01
  0.675337414025638E+00  0.904141431802467E+00  0.309502942180581E-01
  0.675337414025638E+00  0.975060457533844E+00  0.781928588270071E-02
  0.675337414025638E+00  0.100000000000000E+01  0.000000000000000E+00
  0.798443291855323E+00 -0.100000000000000E+01  0.000000000000000E+00
  0.798443291855323E+00 -0.975060457533844E+00  0.370949999068089E-02
  0.798443291855323E+00 -0.904141431802467E+00  0.149804134892124E-01
  0.798443291855323E+00 -0.798443291855323E+00  0.364435173967034E-01
  0.798443291855323E+00 -0.675337414025638E+00  0.706145642173163E-01
  0.798443291855323E+00 -0.560523029461074E+00  0.107175734972781E+00
  0.798443291855323E+00 -0.449536557024029E+00  0.138676332953387E+00
  0.798443291855323E+00 -0.337641464801303E+00  0.160200800702588E+00
  0.798443291855323E+00 -0.224951994744527E+00  0.170521277265452E+00
  0.798443291855323E+00 -0.112343328682423E+00  0.173344215850730E+00
  0.798443291855323E+00  0.414186545644071E-17  0.173580125832483E+00
  0.798443291855323E+00  0.112343328682423E+00  0.173344215850731E+00
  0.798443291855323E+00  0.224951994744527E+00  0.170521277265452E+00
  0.798443291855323E+00  0.337641464801303E+00  0.160200800702588E+00
  0.798443291855323E+00  0.449536557024029E+00  0.138676332953387E+00
  0.798443291855323E+00  0.560523029461074E+00  0.107175734972781E+00
  0.798443291855323E+00  0.675337414025638E+00  0.706145642173164E-01
  0.798443291855323E+00  0.798443291855323E+00  0.364435173967035E-01
  0.798443291855323E+00  0.904141431802467E+00  0.149804134892125E-01
  0.798443291855323E+00  0.975060457533844E+00  0.370949999068092E-02
  0.798443291855323E+00  0.100000000000000E+01  0.000000000000000E+00
  0.904141431802467E+00 -0.100000000000000E+01  0.000000000000000E+00
  0.904141431802467E+00 -0.975060457533844E+00  0.144377903049092E-02
  0.904141431802467E+00 -0.904141431802467E+00  0.590907489575473E-02
  0.904141431802467E+00 -0.798443291855323E+00  0.149804134892124E-01
  0.904141431802467E+00 -0.675337414025638E+00  0.309502942180580E-01
  0.904141431802467E+00 -0.560523029461074E+00  0.501726029121964E-01
  0.904141431802467E+00 -0.449536557024029E+00  0.692845450008591E-01
  0.904141431802467E+00 -0.337641464801303E+00  0.852512793548988E-01
  0.904141431802467E+00 -0.224951994744527E+00  0.958781284742321E-01
  0.904141431802467E+00 -0.112343328682423E+00  0.101281183548939E+00
  0.904141431802467E+00  0.414186545644071E-17  0.102838717823553E+00
  0.904141431802467E+00  0.112343328682423E+00  0.101281183548940E+00
  0.904141431802467E+00  0.224951994744527E+00  0.958781284742325E-01
  0.904141431802467E+00  0.337641464801303E+00  0.852512793548990E-01
  0.904141431802467E+00  0.449536557024029E+00  0.692845450008592E-01
  0.904141431802467E+00  0.560523029461074E+00  0.501726029121965E-01
  0.904141431802467E+00  0.675337414025638E+00  0.309502942180581E-01
  0.904141431802467E+00  0.798443291855323E+00  0.149804134892125E-01
  0.904141431802467E+00  0.904141431802467E+00  0.590907489575477E-02
  0.904141431802467E+00  0.975060457533844E+00  0.144377903049093E-02
  0.904141431802467E+00  0.100000000000000E+01  0.000000000000000E+00
  0.975060457533844E+00 -0.100000000000000E+01  0.000000000000000E+00
  0.975060457533844E+00 -0.975060457533844E+00  0.351200240327449E-03
  0.975060457533844E+00 -0.904141431802467E+00  0.144377903049093E-02
  0.975060457533844E+00 -0.798443291855323E+00  0.370949999068091E-02
  0.975060457533844E+00 -0.675337414025638E+00  0.781928588270069E-02
  0.975060457533844E+00 -0.560523029461074E+00  0.129279650715953E-01
  0.975060457533844E+00 -0.449536557024029E+00  0.181886852612431E-01
  0.975060457533844E+00 -0.337641464801303E+00  0.227711474542427E-01
  0.975060457533844E+00 -0.224951994744527E+00  0.259834373262614E-01
  0.975060457533844E+00 -0.112343328682423E+00  0.277173119651797E-01
  0.975060457533844E+00  0.414186545644071E-17  0.282414146194322E-01
  0.975060457533844E+00  0.112343328682423E+00  0.277173119651798E-01
  0.975060457533844E+00  0.224951994744527E+00  0.259834373262615E-01
  0.975060457533844E+00  0.337641464801303E+00  0.227711474542427E-01
  0.975060457533844E+00  0.449536557024029E+00  0.181886852612431E-01
  0.975060457533844E+00  0.560523029461074E+00  0.129279650715953E-01
  0.975060457533844E+00  0.675337414025638E+00  0.781928588270071E-02
  0.975060457533844E+00  0.798443291855323E+00  0.370949999068092E-02
  0.975060457533844E+00  0.904141431802467E+00  0.144377903049093E-02
  0.975060457533844E+00  0.975060457533844E+00  0.351200240327452E-03
  0.975060457533844E+00  0.100000000000000E+01  0.000000000000000E+00
  0.100000000000000E+01 -0.100000000000000E+01  0.000000000000000E+00
  0.100000000000000E+01 -0.975060457533844E+00  0.000000000000000E+00
  0.100000000000000E+01 -0.904141431802467E+00  0.000000000000000E+00
  0.100000000000000E+01 -0.798443291855323E+00  0.000000000000000E+00
  0.100000000000000E+01 -0.675337414025638E+00  0.000000000000000E+00
  0.100000000000000E+01 -0.560523029461074E+00  0.000000000000000E+00
  0.100000000000000E+01 -0.449536557024029E+00  0.000000000000000E+00