 VARIABLES =  $x$  (c)
 ZONE I=         441 ,DATAPACKING=POINT
 -0.100000000000000E+01 -0.100000000000000E+01  0.000000000000000E+00
 -0.100000000000000E+01 -0.975060457533844E+00  0.000000000000000E+00
 -0.100000000000000E+01 -0.904141431802467E+00  0.000000000000000E+00
 -0.100000000000000E+01 -0.798443291855323E+00  0.000000000000000E+00
 -0.100000000000000E+01 -0.675337414025638E+00  0.000000000000000E+00
 -0.100000000000000E+01 -0.560523029461074E+00  0.000000000000000E+00
 -0.100000000000000E+01 -0.449536557024029E+00  0.000000000000000E+00
 -0.100000000000000E+01 -0.337641464801303E+00  0.000000000000000E+00
 -0.100000000000000E+01 -0.224951994744527E+00  0.000000000000000E+00
 -0.100000000000000E+01 -0.112343328682423E+00  0.000000000000000E+00
 -0.100000000000000E+01  0.414186545644071E-17  0.000000000000000E+00
 -0.100000000000000E+01  0.112343328682423E+00  0.000000000000000E+00
 -0.100000000000000E+01  0.224951994744527E+00  0.000000000000000E+00
 -0.100000000000000E+01  0.337641464801303E+00  0.000000000000000E+00
 -0.100000000000000E+01  0.449536557024029E+00  0.000000000000000E+00
 -0.100000000000000E+01  0.560523029461074E+00  0.000000000000000E+00
 -0.100000000000000E+01  0.675337414025638E+00  0.000000000000000E+00
 -0.100000000000000E+01  0.798443291855323E+00  0.000000000000000E+00
 -0.100000000000000E+01  0.904141431802467E+00  0.000000000000000E+00
 -0.100000000000000E+01  0.975060457533844E+00  0.000000000000000E+00
 -0.100000000000000E+01  0.100000000000000E+01  0.000000000000000E+00
 -0.975060457533844E+00 -0.100000000000000E+01  0.000000000000000E+00
 -0.975060457533844E+00 -0.975060457533844E+00 -0.606099782717405E-02
 -0.975060457533844E+00 -0.904141431802467E+00 -0.221997423029450E-01
 -0.975060457533844E+00 -0.798443291855323E+00 -0.391834233414596E-01
 -0.975060457533844E+00 -0.675337414025638E+00 -0.445659460129709E-01
 -0.975060457533844E+00 -0.560523029461074E+00 -0.387987248816649E-01
 -0.975060457533844E+00 -0.449536557024029E+00 -0.294890647499394E-01
 -0.975060457533844E+00 -0.337641464801303E+00 -0.208908948088018E-01
 -0.975060457533844E+00 -0.224951994744527E+00 -0.148135695874094E-01
 -0.975060457533844E+00 -0.112343328682423E+00 -0.114158840022915E-01
 -0.975060457533844E+00  0.414186545644071E-17 -0.103414729345061E-01
 -0.975060457533844E+00  0.112343328682423E+00 -0.114158840022915E-01
 -0.975060457533844E+00  0.224951994744527E+00 -0.148135695874094E-01
 -0.975060457533844E+00  0.337641464801303E+00 -0.208908948088018E-01
 -0.975060457533844E+00  0.449536557024029E+00 -0.294890647499395E-01
 -0.975060457533844E+00  0.560523029461074E+00 -0.387987248816651E-01
 -0.975060457533844E+00  0.675337414025638E+00 -0.445659460129710E-01
 -0.975060457533844E+00  0.798443291855323E+00 -0.391834233414598E-01
 -0.975060457533844E+00  0.904141431802467E+00 -0.221997423029451E-01
 -0.975060457533844E+00  0.975060457533844E+00 -0.606099782717407E-02
 -0.975060457533844E+00  0.100000000000000E+01  0.000000000000000E+00
 -0.904141431802467E+00 -0.100000000000000E+01  0.000000000000000E+00
 -0.904141431802467E+00 -0.975060457533844E+00 -0.221997423029450E-01
 -0.904141431802467E+00 -0.904141431802467E+00 -0.813610646827677E-01
 -0.904141431802467E+00 -0.798443291855323E+00 -0.143933572695331E+00
 -0.904141431802467E+00 -0.675337414025638E+00 -0.164522045379184E+00
 -0.904141431802467E+00 -0.560523029461074E+00 -0.144337990476152E+00
 -0.904141431802467E+00 -0.449536557024029E+00 -0.111019024839384E+00
 -0.904141431802467E+00 -0.337641464801303E+00 -0.801272384123472E-01
 -0.904141431802467E+00 -0.224951994744527E+00 -0.582946946386754E-01
 -0.904141431802467E+00 -0.112343328682423E+00 -0.461027350123086E-01
 -0.904141431802467E+00  0.414186545644071E-17 -0.422502769407225E-01
 -0.904141431802467E+00  0.112343328682423E+00 -0.461027350123088E-01
 -0.904141431802467E+00  0.224951994744527E+00 -0.582946946386756E-01
 -0.904141431802467E+00  0.337641464801303E+00 -0.801272384123474E-01
 -0.904141431802467E+00  0.449536557024029E+00 -0.111019024839385E+00
 -0.904141431802467E+00  0.560523029461074E+00 -0.144337990476152E+00
 -0.904141431802467E+00  0.675337414025638E+00 -0.164522045379184E+00
 -0.904141431802467E+00  0.798443291855323E+00 -0.143933572695332E+00
 -0.904141431802467E+00  0.904141431802467E+00 -0.813610646827680E-01
 -0.904141431802467E+00  0.975060457533844E+00 -0.221997423029451E-01
 -0.904141431802467E+00  0.100000000000000E+01  0.000000000000000E+00
 -0.798443291855323E+00 -0.100000000000000E+01  0.000000000000000E+00
 -0.798443291855323E+00 -0.975060457533844E+00 -0.391834233414596E-01
 -0.798443291855323E+00 -0.904141431802467E+00 -0.143933572695331E+00
 -0.798443291855323E+00 -0.798443291855323E+00 -0.256775823228420E+00
 -0.798443291855323E+00 -0.675337414025638E+00 -0.298715551382198E+00
 -0.798443291855323E+00 -0.560523029461074E+00 -0.268894999565096E+00
 -0.798443291855323E+00 -0.449536557024029E+00 -0.214746690224957E+00
 -0.798443291855323E+00 -0.337641464801303E+00 -0.163834971484666E+00
 -0.798443291855323E+00 -0.224951994744527E+00 -0.128016556742624E+00
 -0.798443291855323E+00 -0.112343328682423E+00 -0.108224908296937E+00
 -0.798443291855323E+00  0.414186545644071E-17 -0.102018002222973E+00
 -0.798443291855323E+00  0.112343328682423E+00 -0.108224908296937E+00
 -0.798443291855323E+00  0.224951994744527E+00 -0.128016556742624E+00
 -0.798443291855323E+00  0.337641464801303E+00 -0.163834971484667E+00
 -0.798443291855323E+00  0.449536557024029E+00 -0.214746690224958E+00
 -0.798443291855323E+00  0.560523029461074E+00 -0.268894999565097E+00
 -0.798443291855323E+00  0.675337414025638E+00 -0.298715551382199E+00
 -0.798443291855323E+00  0.798443291855323E+00 -0.256775823228421E+00
 -0.798443291855323E+00  0.904141431802467E+00 -0.143933572695332E+00
 -0.798443291855323E+00  0.975060457533844E+00 -0.391834233414599E-01
 -0.798443291855323E+00  0.100000000000000E+01  0.000000000000000E+00
 -0.675337414025638E+00 -0.100000000000000E+01  0.000000000000000E+00
 -0.675337414025638E+00 -0.975060457533844E+00 -0.445659460129709E-01
 -0.675337414025638E+00 -0.904141431802467E+00 -0.164522045379184E+00
 -0.675337414025638E+00 -0.798443291855323E+00 -0.298715551382198E+00
 -0.675337414025638E+00 -0.675337414025638E+00 -0.359301638816244E+00
 -0.675337414025638E+00 -0.560523029461074E+00 -0.337277066533645E+00
 -0.675337414025638E+00 -0.449536557024029E+00 -0.283854683562741E+00
 -0.675337414025638E+00 -0.337641464801303E+00 -0.231801776069625E+00
 -0.675337414025638E+00 -0.224951994744527E+00 -0.195878066521796E+00
 -0.675337414025638E+00 -0.112343328682423E+00 -0.176877744709976E+00
 -0.675337414025638E+00  0.414186545644071E-17 -0.171123167754553E+00
 -0.675337414025638E+00  0.112343328682423E+00 -0.176877744709977E+00
 -0.675337414025638E+00  0.224951994744527E+00 -0.195878066521797E+00
 -0.675337414025638E+00  0.337641464801303E+00 -0.231801776069626E+00
 -0.675337414025638E+00  0.449536557024029E+00 -0.283854683562742E+00
 -0.675337414025638E+00  0.560523029461074E+00 -0.337277066533647E+00
 -0.675337414025638E+00  0.675337414025638E+00 -0.359301638816245E+00
 -0.675337414025638E+00  0.798443291855323E+00 -0.298715551382199E+00
 -0.675337414025638E+00  0.904141431802467E+00 -0.164522045379185E+00
 -0.675337414025638E+00  0.975060457533844E+00 -0.445659460129713E-01
 -0.675337414025638E+00  0.100000000000000E+01  0.000000000000000E+00
 -0.560523029461074E+00 -0.100000000000000E+01  0.000000000000000E+00
 -0.560523029461074E+00 -0.975060457533844E+00 -0.387987248816649E-01
 -0.560523029461074E+00 -0.904141431802467E+00 -0.144337990476152E+00
 -0.560523029461074E+00 -0.798443291855323E+00 -0.268894999565096E+00
 -0.560523029461074E+00 -0.675337414025638E+00 -0.337277066533645E+00
 -0.560523029461074E+00 -0.560523029461074E+00 -0.329514438475651E+00
 -0.560523029461074E+00 -0.449536557024029E+00 -0.287227215738441E+00
 -0.560523029461074E+00 -0.337641464801303E+00 -0.242885379144908E+00
 -0.560523029461074E+00 -0.224951994744527E+00 -0.213084072342830E+00
 -0.560523029461074E+00 -0.112343328682423E+00 -0.198683517565249E+00
 -0.560523029461074E+00  0.414186545644071E-17 -0.194695735292404E+00
 -0.560523029461074E+00  0.112343328682423E+00 -0.198683517565249E+00
 -0.560523029461074E+00  0.224951994744527E+00 -0.213084072342831E+00
 -0.560523029461074E+00  0.337641464801303E+00 -0.242885379144909E+00
 -0.560523029461074E+00  0.449536557024029E+00 -0.287227215738442E+00
 -0.560523029461074E+00  0.560523029461074E+00 -0.329514438475652E+00
 -0.560523029461074E+00  0.675337414025638E+00 -0.337277066533647E+00
 -0.560523029461074E+00  0.798443291855323E+00 -0.268894999565097E+00
 -0.560523029461074E+00  0.904141431802467E+00 -0.144337990476153E+00
 -0.560523029461074E+00  0.975060457533844E+00 -0.387987248816653E-01
 -0.560523029461074E+00  0.100000000000000E+01  0.000000000000000E+00
 -0.449536557024029E+00 -0.100000000000000E+01  0.000000000000000E+00
 -0.449536557024029E+00 -0.975060457533844E+00 -0.294890647499394E-01
 -0.449536557024029E+00 -0.904141431802467E+00 -0.111019024839384E+00
 -0.449536557024029E+00 -0.798443291855323E+00 -0.214746690224957E+00
 -0.449536557024029E+00 -0.675337414025638E+00 -0.283854683562741E+00
 -0.449536557024029E+00 -0.560523029461074E+00 -0.287227215738441E+00
 -0.449536557024029E+00 -0.449536557024029E+00 -0.252960700394505E+00
 -0.449536557024029E+00 -0.337641464801303E+00 -0.212067923562338E+00
 -0.449536557024029E+00 -0.224951994744527E+00 -0.184110259055060E+00
 -0.449536557024029E+00 -0.112343328682423E+00 -0.171419764987220E+00
 -0.449536557024029E+00  0.414186545644071E-17 -0.168222193915276E+00
 -0.449536557024029E+00  0.112343328682423E+00 -0.171419764987221E+00
 -0.449536557024029E+00  0.224951994744527E+00 -0.184110259055061E+00
 -0.449536557024029E+00  0.337641464801303E+00 -0.212067923562338E+00
 -0.449536557024029E+00  0.449536557024029E+00 -0.252960700394506E+00
 -0.449536557024029E+00  0.560523029461074E+00 -0.287227215738442E+00
 -0.449536557024029E+00  0.675337414025638E+00 -0.283854683562742E+00
 -0.449536557024029E+00  0.798443291855323E+00 -0.214746690224958E+00
 -0.449536557024029E+00  0.904141431802467E+00 -0.111019024839385E+00
 -0.449536557024029E+00  0.975060457533844E+00 -0.294890647499397E-01
 -0.449536557024029E+00  0.100000000000000E+01  0.000000000000000E+00
 -0.337641464801303E+00 -0.100000000000000E+01  0.000000000000000E+00
 -0.337641464801303E+00 -0.975060457533844E+00 -0.208908948088018E-01
 -0.337641464801303E+00 -0.904141431802467E+00 -0.801272384123472E-01
 -0.337641464801303E+00 -0.798443291855323E+00 -0.163834971484666E+00
 -0.337641464801303E+00 -0.675337414025638E+00 -0.231801776069625E+00
 -0.337641464801303E+00 -0.560523029461074E+00 -0.242885379144908E+00
 -0.337641464801303E+00 -0.449536557024029E+00 -0.212067923562338E+00
 -0.337641464801303E+00 -0.337641464801303E+00 -0.168913254516000E+00
 -0.337641464801303E+00 -0.224951994744527E+00 -0.137055318689706E+00
 -0.337641464801303E+00 -0.112343328682423E+00 -0.121927138703443E+00
 -0.337641464801303E+00  0.414186545644071E-17 -0.118033287064591E+00
 -0.337641464801303E+00  0.112343328682423E+00 -0.121927138703443E+00
 -0.337641464801303E+00  0.224951994744527E+00 -0.137055318689707E+00
 -0.337641464801303E+00  0.337641464801303E+00 -0.168913254516001E+00
 -0.337641464801303E+00  0.449536557024029E+00 -0.212067923562338E+00
 -0.337641464801303E+00  0.560523029461074E+00 -0.242885379144909E+00
 -0.337641464801303E+00  0.675337414025638E+00 -0.231801776069626E+00
 -0.337641464801303E+00  0.798443291855323E+00 -0.163834971484668E+00
 -0.337641464801303E+00  0.904141431802467E+00 -0.801272384123481E-01
 -0.337641464801303E+00  0.975060457533844E+00 -0.208908948088020E-01
 -0.337641464801303E+00  0.100000000000000E+01  0.000000000000000E+00
 -0.224951994744527E+00 -0.100000000000000E+01  0.000000000000000E+00
 -0.224951994744527E+00 -0.975060457533844E+00 -0.148135695874094E-01
 -0.224951994744527E+00 -0.904141431802467E+00 -0.582946946386754E-01
 -0.224951994744527E+00 -0.798443291855323E+00 -0.128016556742624E+00
 -0.224951994744527E+00 -0.675337414025638E+00 -0.195878066521796E+00
 -0.224951994744527E+00 -0.560523029461074E+00 -0.213084072342830E+00
 -0.224951994744527E+00 -0.449536557024029E+00 -0.184110259055060E+00
 -0.224951994744527E+00 -0.337641464801303E+00 -0.137055318689706E+00
 -0.224951994744527E+00 -0.224951994744527E+00 -0.993592381688513E-01
 -0.224951994744527E+00 -0.112343328682423E+00 -0.800805171368408E-01
 -0.224951994744527E+00  0.414186545644071E-17 -0.748047586201687E-01
 -0.224951994744527E+00  0.112343328682423E+00 -0.800805171368411E-01
 -0.224951994744527E+00  0.224951994744527E+00 -0.993592381688516E-01
 -0.224951994744527E+00  0.337641464801303E+00 -0.137055318689706E+00
 -0.224951994744527E+00  0.449536557024029E+00 -0.184110259055061E+00
 -0.224951994744527E+00  0.560523029461074E+00 -0.213084072342830E+00
 -0.224951994744527E+00  0.675337414025638E+00 -0.195878066521798E+00
 -0.224951994744527E+00  0.798443291855323E+00 -0.128016556742625E+00
 -0.224951994744527E+00  0.904141431802467E+00 -0.582946946386763E-01
 -0.224951994744527E+00  0.975060457533844E+00 -0.148135695874097E-01
 -0.224951994744527E+00  0.100000000000000E+01  0.000000000000000E+00
 -0.112343328682423E+00 -0.100000000000000E+01  0.000000000000000E+00
 -0.112343328682423E+00 -0.975060457533844E+00 -0.114158840022915E-01
 -0.112343328682423E+00 -0.904141431802467E+00 -0.461027350123086E-01
 -0.112343328682423E+00 -0.798443291855323E+00 -0.108224908296937E+00
 -0.112343328682423E+00 -0.675337414025638E+00 -0.176877744709976E+00
 -0.112343328682423E+00 -0.560523029461074E+00 -0.198683517565249E+00
 -0.112343328682423E+00 -0.449536557024029E+00 -0.171419764987220E+00
 -0.112343328682423E+00 -0.337641464801303E+00 -0.121927138703443E+00
 -0.112343328682423E+00 -0.224951994744527E+00 -0.800805171368408E-01
 -0.112343328682423E+00 -0.112343328682423E+00 -0.576452042653742E-01
 -0.112343328682423E+00  0.414186545644071E-17 -0.512737058702866E-01
 -0.112343328682423E+00  0.112343328682423E+00 -0.576452042653745E-01
 -0.112343328682423E+00  0.224951994744527E+00 -0.800805171368412E-01
 -0.112343328682423E+00  0.337641464801303E+00 -0.121927138703443E+00
 -0.112343328682423E+00  0.449536557024029E+00 -0.171419764987221E+00
 -0.112343328682423E+00  0.560523029461074E+00 -0.198683517565250E+00
 -0.112343328682423E+00  0.675337414025638E+00 -0.176877744709978E+00
 -0.112343328682423E+00  0.798443291855323E+00 -0.108224908296938E+00
 -0.112343328682423E+00  0.904141431802467E+00 -0.461027350123093E-01
 -0.112343328682423E+00  0.975060457533844E+00 -0.114158840022916E-01
 -0.112343328682423E+00  0.100000000000000E+01  0.000000000000000E+00
  0.414186545644071E-17 -0.100000000000000E+01  0.000000000000000E+00
  0.414186545644071E-17 -0.975060457533844E+00 -0.103414729345061E-01
  0.414186545644071E-17 -0.904141431802467E+00 -0.422502769407225E-01
  0.414186545644071E-17 -0.798443291855323E+00 -0.102018002222973E+00
  0.414186545644071E-17 -0.675337414025638E+00 -0.171123167754553E+00
  0.414186545644071E-17 -0.560523029461074E+00 -0.194695735292404E+00
  0.414186545644071E-17 -0.449536557024029E+00 -0.168222193915276E+00
  0.414186545644071E-17 -0.337641464801303E+00 -0.118033287064591E+00
  0.414186545644071E-17 -0.224951994744527E+00 -0.748047586201687E-01
  0.414186545644071E-17 -0.112343328682423E+00 -0.512737058702866E-01
  0.414186545644071E-17  0.414186545644071E-17 -0.445148473355419E-01
  0.414186545644071E-17  0.112343328682423E+00 -0.512737058702867E-01
  0.414186545644071E-17  0.224951994744527E+00 -0.748047586201690E-01
  0.414186545644071E-17  0.337641464801303E+00 -0.118033287064591E+00
  0.414186545644071E-17  0.449536557024029E+00 -0.168222193915276E+00
  0.414186545644071E-17  0.560523029461074E+00 -0.194695735292405E+00
  0.414186545644071E-17  0.675337414025638E+00 -0.171123167754555E+00
  0.414186545644071E-17  0.798443291855323E+00 -0.102018002222975E+00
  0.414186545644071E-17  0.904141431802467E+00 -0.422502769407233E-01
  0.414186545644071E-17  0.975060457533844E+00 -0.103414729345063E-01
  0.414186545644071E-17  0.100000000000000E+01  0.000000000000000E+00
  0.112343328682423E+00 -0.100000000000000E+01  0.000000000000000E+00
  0.112343328682423E+00 -0.975060457533844E+00 -0.114158840022915E-01
  0.112343328682423E+00 -0.904141431802467E+00 -0.461027350123088E-01
  0.112343328682423E+00 -0.798443291855323E+00 -0.108224908296937E+00
  0.112343328682423E+00 -0.675337414025638E+00 -0.176877744709977E+00
  0.112343328682423E+00 -0.560523029461074E+00 -0.198683517565249E+00
  0.112343328682423E+00 -0.449536557024029E+00 -0.171419764987221E+00
  0.112343328682423E+00 -0.337641464801303E+00 -0.121927138703443E+00
  0.112343328682423E+00 -0.224951994744527E+00 -0.800805171368411E-01
  0.112343328682423E+00 -0.112343328682423E+00 -0.576452042653745E-01
  0.112343328682423E+00  0.414186545644071E-17 -0.512737058702867E-01
  0.112343328682423E+00  0.112343328682423E+00 -0.576452042653746E-01
  0.112343328682423E+00  0.224951994744527E+00 -0.800805171368415E-01
  0.112343328682423E+00  0.337641464801303E+00 -0.121927138703444E+00
  0.112343328682423E+00  0.449536557024029E+00 -0.171419764987221E+00
  0.112343328682423E+00  0.560523029461074E+00 -0.198683517565250E+00
  0.112343328682423E+00  0.675337414025638E+00 -0.176877744709978E+00
  0.112343328682423E+00  0.798443291855323E+00 -0.108224908296939E+00
  0.112343328682423E+00  0.904141431802467E+00 -0.461027350123094E-01
  0.112343328682423E+00  0.975060457533844E+00 -0.114158840022917E-01
  0.112343328682423E+00  0.100000000000000E+01  0.000000000000000E+00
  0.224951994744527E+00 -0.100000000000000E+01  0.000000000000000E+00
  0.224951994744527E+00 -0.975060457533844E+00 -0.148135695874094E-01
  0.224951994744527E+00 -0.904141431802467E+00 -0.582946946386756E-01
  0.224951994744527E+00 -0.798443291855323E+00 -0.128016556742624E+00
  0.224951994744527E+00 -0.675337414025638E+00 -0.195878066521797E+00
  0.224951994744527E+00 -0.560523029461074E+00 -0.213084072342831E+00
  0.224951994744527E+00 -0.449536557024029E+00 -0.184110259055061E+00
  0.224951994744527E+00 -0.337641464801303E+00 -0.137055318689707E+00
  0.224951994744527E+00 -0.224951994744527E+00 -0.993592381688516E-01
  0.224951994744527E+00 -0.112343328682423E+00 -0.800805171368412E-01
  0.224951994744527E+00  0.414186545644071E-17 -0.748047586201690E-01
  0.224951994744527E+00  0.112343328682423E+00 -0.800805171368415E-01
  0.224951994744527E+00  0.224951994744527E+00 -0.993592381688520E-01
  0.224951994744527E+00  0.337641464801303E+00 -0.137055318689707E+00
  0.224951994744527E+00  0.449536557024029E+00 -0.184110259055061E+00
  0.224951994744527E+00  0.560523029461074E+00 -0.213084072342831E+00
  0.224951994744527E+00  0.675337414025638E+00 -0.195878066521798E+00
  0.224951994744527E+00  0.798443291855323E+00 -0.128016556742626E+00
  0.224951994744527E+00  0.904141431802467E+00 -0.582946946386766E-01
  0.224951994744527E+00  0.975060457533844E+00 -0.148135695874097E-01
  0.224951994744527E+00  0.100000000000000E+01  0.000000000000000E+00
  0.337641464801303E+00 -0.100000000000000E+01  0.000000000000000E+00
  0.337641464801303E+00 -0.975060457533844E+00 -0.208908948088018E-01
  0.337641464801303E+00 -0.904141431802467E+00 -0.801272384123474E-01
  0.337641464801303E+00 -0.798443291855323E+00 -0.163834971484667E+00
  0.337641464801303E+00 -0.675337414025638E+00 -0.231801776069626E+00
  0.337641464801303E+00 -0.560523029461074E+00 -0.242885379144909E+00
  0.337641464801303E+00 -0.449536557024029E+00 -0.212067923562338E+00
  0.337641464801303E+00 -0.337641464801303E+00 -0.168913254516001E+00
  0.337641464801303E+00 -0.224951994744527E+00 -0.137055318689706E+00
  0.337641464801303E+00 -0.112343328682423E+00 -0.121927138703443E+00
  0.337641464801303E+00  0.414186545644071E-17 -0.118033287064591E+00
  0.337641464801303E+00  0.112343328682423E+00 -0.121927138703444E+00
  0.337641464801303E+00  0.224951994744527E+00 -0.137055318689707E+00
  0.337641464801303E+00  0.337641464801303E+00 -0.168913254516001E+00
  0.337641464801303E+00  0.449536557024029E+00 -0.212067923562339E+00
  0.337641464801303E+00  0.560523029461074E+00 -0.242885379144910E+00
  0.337641464801303E+00  0.675337414025638E+00 -0.231801776069627E+00
  0.337641464801303E+00  0.798443291855323E+00 -0.163834971484669E+00
  0.337641464801303E+00  0.904141431802467E+00 -0.801272384123485E-01
  0.337641464801303E+00  0.975060457533844E+00 -0.208908948088021E-01
  0.337641464801303E+00  0.100000000000000E+01  0.000000000000000E+00
  0.449536557024029E+00 -0.100000000000000E+01  0.000000000000000E+00
  0.449536557024029E+00 -0.975060457533844E+00 -0.294890647499395E-01
  0.449536557024029E+00 -0.904141431802467E+00 -0.111019024839385E+00
  0.449536557024029E+00 -0.798443291855323E+00 -0.214746690224958E+00
  0.449536557024029E+00 -0.675337414025638E+00 -0.283854683562742E+00
  0.449536557024029E+00 -0.560523029461074E+00 -0.287227215738442E+00
  0.449536557024029E+00 -0.449536557024029E+00 -0.252960700394506E+00
  0.449536557024029E+00 -0.337641464801303E+00 -0.212067923562338E+00
  0.449536557024029E+00 -0.224951994744527E+00 -0.184110259055061E+00
  0.449536557024029E+00 -0.112343328682423E+00 -0.171419764987221E+00
  0.449536557024029E+00  0.414186545644071E-17 -0.168222193915276E+00
  0.449536557024029E+00  0.112343328682423E+00 -0.171419764987221E+00
  0.449536557024029E+00  0.224951994744527E+00 -0.184110259055061E+00
  0.449536557024029E+00  0.337641464801303E+00 -0.212067923562339E+00
  0.449536557024029E+00  0.449536557024029E+00 -0.252960700394506E+00
  0.449536557024029E+00  0.560523029461074E+00 -0.287227215738443E+00
  0.449536557024029E+00  0.675337414025638E+00 -0.283854683562743E+00
  0.449536557024029E+00  0.798443291855323E+00 -0.214746690224959E+00
  0.449536557024029E+00  0.904141431802467E+00 -0.111019024839386E+00
  0.449536557024029E+00  0.975060457533844E+00 -0.294890647499399E-01
  0.449536557024029E+00  0.100000000000000E+01  0.000000000000000E+00
  0.560523029461074E+00 -0.100000000000000E+01  0.000000000000000E+00
  0.560523029461074E+00 -0.975060457533844E+00 -0.387987248816651E-01
  0.560523029461074E+00 -0.904141431802467E+00 -0.144337990476152E+00
  0.560523029461074E+00 -0.798443291855323E+00 -0.268894999565097E+00
  0.560523029461074E+00 -0.675337414025638E+00 -0.337277066533647E+00
  0.560523029461074E+00 -0.560523029461074E+00 -0.329514438475652E+00
  0.560523029461074E+00 -0.449536557024029E+00 -0.287227215738442E+00
  0.560523029461074E+00 -0.337641464801303E+00 -0.242885379144909E+00
  0.560523029461074E+00 -0.224951994744527E+00 -0.213084072342830E+00
  0.560523029461074E+00 -0.112343328682423E+00 -0.198683517565250E+00
  0.560523029461074E+00  0.414186545644071E-17 -0.194695735292405E+00
  0.560523029461074E+00  0.112343328682423E+00 -0.198683517565250E+00
  0.560523029461074E+00  0.224951994744527E+00 -0.213084072342831E+00
  0.560523029461074E+00  0.337641464801303E+00 -0.242885379144910E+00
  0.560523029461074E+00  0.449536557024029E+00 -0.287227215738443E+00
  0.560523029461074E+00  0.560523029461074E+00 -0.329514438475653E+00
  0.560523029461074E+00  0.675337414025638E+00 -0.337277066533648E+00
  0.560523029461074E+00  0.798443291855323E+00 -0.268894999565098E+00
  0.560523029461074E+00  0.904141431802467E+00 -0.144337990476153E+00
  0.560523029461074E+00  0.975060457533844E+00 -0.387987248816655E-01
  0.560523029461074E+00  0.100000000000000E+01  0.000000000000000E+00
  0.675337414025638E+00 -0.100000000000000E+01  0.000000000000000E+00
  0.675337414025638E+00 -0.975060457533844E+00 -0.445659460129710E-01
  0.675337414025638E+00 -0.904141431802467E+00 -0.164522045379184E+00
  0.675337414025638E+00 -0.798443291855323E+00 -0.298715551382199E+00
  0.675337414025638E+00 -0.675337414025638E+00 -0.359301638816245E+00
  0.675337414025638E+00 -0.560523029461074E+00 -0.337277066533647E+00
  0.675337414025638E+00 -0.449536557024029E+00 -0.283854683562742E+00
  0.675337414025638E+00 -0.337641464801303E+00 -0.231801776069626E+00
  0.675337414025638E+00 -0.224951994744527E+00 -0.195878066521798E+00
  0.675337414025638E+00 -0.112343328682423E+00 -0.176877744709978E+00
  0.675337414025638E+00  0.414186545644071E-17 -0.171123167754555E+00
  0.675337414025638E+00  0.112343328682423E+00 -0.176877744709978E+00
  0.675337414025638E+00  0.224951994744527E+00 -0.195878066521798E+00
  0.675337414025638E+00  0.337641464801303E+00 -0.231801776069627E+00
  0.675337414025638E+00  0.449536557024029E+00 -0.283854683562743E+00
  0.675337414025638E+00  0.560523029461074E+00 -0.337277066533648E+00
  0.675337414025638E+00  0.675337414025638E+00 -0.359301638816246E+00
  0.675337414025638E+00  0.798443291855323E+00 -0.298715551382200E+00
  0.675337414025638E+00  0.904141431802467E+00 -0.164522045379186E+00
  0.675337414025638E+00  0.975060457533844E+00 -0.445659460129715E-01
  0.675337414025638E+00  0.100000000000000E+01  0.000000000000000E+00
  0.798443291855323E+00 -0.100000000000000E+01  0.000000000000000E+00
  0.798443291855323E+00 -0.975060457533844E+00 -0.391834233414598E-01
  0.798443291855323E+00 -0.904141431802467E+00 -0.143933572695332E+00
  0.798443291855323E+00 -0.798443291855323E+00 -0.256775823228421E+00
  0.798443291855323E+00 -0.675337414025638E+00 -0.298715551382199E+00
  0.798443291855323E+00 -0.560523029461074E+00 -0.268894999565097E+00
  0.798443291855323E+00 -0.449536557024029E+00 -0.214746690224958E+00
  0.798443291855323E+00 -0.337641464801303E+00 -0.163834971484668E+00
  0.798443291855323E+00 -0.224951994744527E+00 -0.128016556742625E+00
  0.798443291855323E+00 -0.112343328682423E+00 -0.108224908296938E+00
  0.798443291855323E+00  0.414186545644071E-17 -0.102018002222975E+00
  0.798443291855323E+00  0.112343328682423E+00 -0.108224908296939E+00
  0.798443291855323E+00  0.224951994744527E+00 -0.128016556742626E+00
  0.798443291855323E+00  0.337641464801303E+00 -0.163834971484669E+00
  0.798443291855323E+00  0.449536557024029E+00 -0.214746690224959E+00
  0.798443291855323E+00  0.560523029461074E+00 -0.268894999565098E+00
  0.798443291855323E+00  0.675337414025638E+00 -0.298715551382200E+00
  0.798443291855323E+00  0.798443291855323E+00 -0.256775823228422E+00
  0.798443291855323E+00  0.904141431802467E+00 -0.143933572695333E+00
  0.798443291855323E+00  0.975060457533844E+00 -0.391834233414602E-01
  0.798443291855323E+00  0.100000000000000E+01  0.000000000000000E+00
  0.904141431802467E+00 -0.100000000000000E+01  0.000000000000000E+00
  0.904141431802467E+00 -0.975060457533844E+00 -0.221997423029451E-01
  0.904141431802467E+00 -0.904141431802467E+00 -0.813610646827680E-01
  0.904141431802467E+00 -0.798443291855323E+00 -0.143933572695332E+00
  0.904141431802467E+00 -0.675337414025638E+00 -0.164522045379185E+00
  0.904141431802467E+00 -0.560523029461074E+00 -0.144337990476153E+00
  0.904141431802467E+00 -0.449536557024029E+00 -0.111019024839385E+00
  0.904141431802467E+00 -0.337641464801303E+00 -0.801272384123481E-01
  0.904141431802467E+00 -0.224951994744527E+00 -0.582946946386763E-01
  0.904141431802467E+00 -0.112343328682423E+00 -0.461027350123093E-01
  0.904141431802467E+00  0.414186545644071E-17 -0.422502769407233E-01
  0.904141431802467E+00  0.112343328682423E+00 -0.461027350123094E-01
  0.904141431802467E+00  0.224951994744527E+00 -0.582946946386766E-01
  0.904141431802467E+00  0.337641464801303E+00 -0.801272384123485E-01
  0.904141431802467E+00  0.449536557024029E+00 -0.111019024839386E+00
  0.904141431802467E+00  0.560523029461074E+00 -0.144337990476153E+00
  0.904141431802467E+00  0.675337414025638E+00 -0.164522045379186E+00
  0.904141431802467E+00  0.798443291855323E+00 -0.143933572695333E+00
  0.904141431802467E+00  0.904141431802467E+00 -0.813610646827688E-01
  0.904141431802467E+00  0.975060457533844E+00 -0.221997423029454E-01
  0.904141431802467E+00  0.100000000000000E+01  0.000000000000000E+00
  0.975060457533844E+00 -0.100000000000000E+01  0.000000000000000E+00
  0.975060457533844E+00 -0.975060457533844E+00 -0.606099782717407E-02
  0.975060457533844E+00 -0.904141431802467E+00 -0.221997423029451E-01
  0.975060457533844E+00 -0.798443291855323E+00 -0.391834233414599E-01
  0.975060457533844E+00 -0.675337414025638E+00 -0.445659460129713E-01
  0.975060457533844E+00 -0.560523029461074E+00 -0.387987248816653E-01
  0.975060457533844E+00 -0.449536557024029E+00 -0.294890647499397E-01
  0.975060457533844E+00 -0.337641464801303E+00 -0.208908948088020E-01
  0.975060457533844E+00 -0.224951994744527E+00 -0.148135695874097E-01
  0.975060457533844E+00 -0.112343328682423E+00 -0.114158840022916E-01
  0.975060457533844E+00  0.414186545644071E-17 -0.103414729345063E-01
  0.975060457533844E+00  0.112343328682423E+00 -0.114158840022917E-01
  0.975060457533844E+00  0.224951994744527E+00 -0.148135695874097E-01
  0.975060457533844E+00  0.337641464801303E+00 -0.208908948088021E-01
  0.975060457533844E+00  0.449536557024029E+00 -0.294890647499399E-01
  0.975060457533844E+00  0.560523029461074E+00 -0.387987248816655E-01
  0.975060457533844E+00  0.675337414025638E+00 -0.445659460129715E-01
  0.975060457533844E+00  0.798443291855323E+00 -0.391834233414602E-01
  0.975060457533844E+00  0.904141431802467E+00 -0.221997423029454E-01
  0.975060457533844E+00  0.975060457533844E+00 -0.606099782717414E-02
  0.975060457533844E+00  0.100000000000000E+01  0.000000000000000E+00
  0.100000000000000E+01 -0.100000000000000E+01  0.000000000000000E+00
  0.100000000000000E+01 -0.975060457533844E+00  0.000000000000000E+00
  0.100000000000000E+01 -0.904141431802467E+00  0.000000000000000E+00
  0.100000000000000E+01 -0.798443291855323E+00  0.000000000000000E+00
  0.100000000000000E+01 -0.675337414025638E+00  0.000000000000000E+00
  0.100000000000000E+01 -0.560523029461074E+00  0.000000000000000E+00
  0.100000000000000E+01 -0.449536557024029E+00  0.000000000000000E+00