 VARIABLES =  $x$  (d)
 ZONE I=         441 ,DATAPACKING=POINT
 -0.100000000000000E+01 -0.100000000000000E+01  0.666666666666660E-16
 -0.100000000000000E+01 -0.975060457533844E+00  0.000000000000000E+00
 -0.100000000000000E+01 -0.904141431802467E+00  0.666666666666660E-16
 -0.100000000000000E+01 -0.798443291855323E+00  0.666666666666660E-16
 -0.100000000000000E+01 -0.675337414025638E+00  0.666666666666660E-16
 -0.100000000000000E+01 -0.560523029461074E+00  0.666666666666660E-16
 -0.100000000000000E+01 -0.449536557024029E+00  0.000000000000000E+00
 -0.100000000000000E+01 -0.337641464801303E+00  0.666666666666660E-16
 -0.100000000000000E+01 -0.224951994744527E+00  0.666666666666660E-16
 -0.100000000000000E+01 -0.112343328682423E+00  0.666666666666660E-16
 -0.100000000000000E+01  0.414186545644071E-17  0.666666666666660E-16
 -0.100000000000000E+01  0.112343328682423E+00  0.000000000000000E+00
 -0.100000000000000E+01  0.224951994744527E+00  0.666666666666660E-16
 -0.100000000000000E+01  0.337641464801303E+00  0.666666666666660E-16
 -0.100000000000000E+01  0.449536557024029E+00  0.666666666666660E-16
 -0.100000000000000E+01  0.560523029461074E+00  0.666666666666660E-16
 -0.100000000000000E+01  0.675337414025638E+00  0.666666666666660E-16
 -0.100000000000000E+01  0.798443291855323E+00  0.000000000000000E+00
 -0.100000000000000E+01  0.904141431802467E+00  0.666666666666660E-16
 -0.100000000000000E+01  0.975060457533844E+00  0.666666666666660E-16
 -0.100000000000000E+01  0.100000000000000E+01  0.666666666666660E-16
 -0.975060457533844E+00 -0.100000000000000E+01  0.000000000000000E+00
 -0.975060457533844E+00 -0.975060457533844E+00 -0.472123192841161E-04
 -0.975060457533844E+00 -0.904141431802467E+00  0.265374126572117E-04
 -0.975060457533844E+00 -0.798443291855323E+00  0.154726104805189E-02
 -0.975060457533844E+00 -0.675337414025638E+00  0.649009078038166E-02
 -0.975060457533844E+00 -0.560523029461074E+00  0.129576620643312E-01
 -0.975060457533844E+00 -0.449536557024029E+00  0.168608722879875E-01
 -0.975060457533844E+00 -0.337641464801303E+00  0.140247755390830E-01
 -0.975060457533844E+00 -0.224951994744527E+00  0.389388662318720E-02
 -0.975060457533844E+00 -0.112343328682423E+00 -0.779011065542541E-02
 -0.975060457533844E+00  0.414186545644071E-17 -0.129268305884429E-01
 -0.975060457533844E+00  0.112343328682423E+00 -0.779011065542539E-02
 -0.975060457533844E+00  0.224951994744527E+00  0.389388662318707E-02
 -0.975060457533844E+00  0.337641464801303E+00  0.140247755390829E-01
 -0.975060457533844E+00  0.449536557024029E+00  0.168608722879875E-01
 -0.975060457533844E+00  0.560523029461074E+00  0.129576620643313E-01
 -0.975060457533844E+00  0.675337414025638E+00  0.649009078038165E-02
 -0.975060457533844E+00  0.798443291855323E+00  0.154726104805194E-02
 -0.975060457533844E+00  0.904141431802467E+00  0.265374126572256E-04
 -0.975060457533844E+00  0.975060457533844E+00 -0.472123192841190E-04
 -0.975060457533844E+00  0.100000000000000E+01  0.666666666666660E-16
 -0.904141431802467E+00 -0.100000000000000E+01  0.000000000000000E+00
 -0.904141431802467E+00 -0.975060457533844E+00  0.265374126572117E-04
 -0.904141431802467E+00 -0.904141431802467E+00  0.866978894841562E-03
 -0.904141431802467E+00 -0.798443291855323E+00  0.728066635084078E-02
 -0.904141431802467E+00 -0.675337414025638E+00  0.261785178668166E-01
 -0.904141431802467E+00 -0.560523029461074E+00  0.501083511495194E-01
 -0.904141431802467E+00 -0.449536557024029E+00  0.640036216333429E-01
 -0.904141431802467E+00 -0.337641464801303E+00  0.526613505030796E-01
 -0.904141431802467E+00 -0.224951994744527E+00  0.143117294628951E-01
 -0.904141431802467E+00 -0.112343328682423E+00 -0.295742654502302E-01
 -0.904141431802467E+00  0.414186545644071E-17 -0.488302358434271E-01
 -0.904141431802467E+00  0.112343328682423E+00 -0.295742654502303E-01
 -0.904141431802467E+00  0.224951994744527E+00  0.143117294628947E-01
 -0.904141431802467E+00  0.337641464801303E+00  0.526613505030794E-01
 -0.904141431802467E+00  0.449536557024029E+00  0.640036216333431E-01
 -0.904141431802467E+00  0.560523029461074E+00  0.501083511495197E-01
 -0.904141431802467E+00  0.675337414025638E+00  0.261785178668169E-01
 -0.904141431802467E+00  0.798443291855323E+00  0.728066635084110E-02
 -0.904141431802467E+00  0.904141431802467E+00  0.866978894841654E-03
 -0.904141431802467E+00  0.975060457533844E+00  0.265374126571957E-04
 -0.904141431802467E+00  0.100000000000000E+01  0.666666666666660E-16
 -0.798443291855323E+00 -0.100000000000000E+01  0.666666666666660E-16
 -0.798443291855323E+00 -0.975060457533844E+00  0.154726104805189E-02
 -0.798443291855323E+00 -0.904141431802467E+00  0.728066635084078E-02
 -0.798443291855323E+00 -0.798443291855323E+00  0.246509555852117E-01
 -0.798443291855323E+00 -0.675337414025638E+00  0.633007365071311E-01
 -0.798443291855323E+00 -0.560523029461074E+00  0.106831755515191E+00
 -0.798443291855323E+00 -0.449536557024029E+00  0.128387694646884E+00
 -0.798443291855323E+00 -0.337641464801303E+00  0.101860624677866E+00
 -0.798443291855323E+00 -0.224951994744527E+00  0.258314908403398E-01
 -0.798443291855323E+00 -0.112343328682423E+00 -0.589537791045855E-01
 -0.798443291855323E+00  0.414186545644071E-17 -0.959162605038932E-01
 -0.798443291855323E+00  0.112343328682423E+00 -0.589537791045861E-01
 -0.798443291855323E+00  0.224951994744527E+00  0.258314908403392E-01
 -0.798443291855323E+00  0.337641464801303E+00  0.101860624677866E+00
 -0.798443291855323E+00  0.449536557024029E+00  0.128387694646884E+00
 -0.798443291855323E+00  0.560523029461074E+00  0.106831755515191E+00
 -0.798443291855323E+00  0.675337414025638E+00  0.633007365071317E-01
 -0.798443291855323E+00  0.798443291855323E+00  0.246509555852124E-01
 -0.798443291855323E+00  0.904141431802467E+00  0.728066635084108E-02
 -0.798443291855323E+00  0.975060457533844E+00  0.154726104805194E-02
 -0.798443291855323E+00  0.100000000000000E+01  0.666666666666660E-16
 -0.675337414025638E+00 -0.100000000000000E+01  0.000000000000000E+00
 -0.675337414025638E+00 -0.975060457533844E+00  0.649009078038166E-02
 -0.675337414025638E+00 -0.904141431802467E+00  0.261785178668166E-01
 -0.675337414025638E+00 -0.798443291855323E+00  0.633007365071311E-01
 -0.675337414025638E+00 -0.675337414025638E+00  0.120041150455564E+00
 -0.675337414025638E+00 -0.560523029461074E+00  0.170486129801558E+00
 -0.675337414025638E+00 -0.449536557024029E+00  0.185458306016973E+00
 -0.675337414025638E+00 -0.337641464801303E+00  0.137863793552143E+00
 -0.675337414025638E+00 -0.224951994744527E+00  0.300140925636113E-01
 -0.675337414025638E+00 -0.112343328682423E+00 -0.851402092029096E-01
 -0.675337414025638E+00  0.414186545644071E-17 -0.134823152547179E+00
 -0.675337414025638E+00  0.112343328682423E+00 -0.851402092029103E-01
 -0.675337414025638E+00  0.224951994744527E+00  0.300140925636107E-01
 -0.675337414025638E+00  0.337641464801303E+00  0.137863793552143E+00
 -0.675337414025638E+00  0.449536557024029E+00  0.185458306016974E+00
 -0.675337414025638E+00  0.560523029461074E+00  0.170486129801558E+00
 -0.675337414025638E+00  0.675337414025638E+00  0.120041150455565E+00
 -0.675337414025638E+00  0.798443291855323E+00  0.633007365071319E-01
 -0.675337414025638E+00  0.904141431802467E+00  0.261785178668170E-01
 -0.675337414025638E+00  0.975060457533844E+00  0.649009078038175E-02
 -0.675337414025638E+00  0.100000000000000E+01  0.000000000000000E+00
 -0.560523029461074E+00 -0.100000000000000E+01  0.666666666666660E-16
 -0.560523029461074E+00 -0.975060457533844E+00  0.129576620643312E-01
 -0.560523029461074E+00 -0.904141431802467E+00  0.501083511495194E-01
 -0.560523029461074E+00 -0.798443291855323E+00  0.106831755515191E+00
 -0.560523029461074E+00 -0.675337414025638E+00  0.170486129801558E+00
 -0.560523029461074E+00 -0.560523029461074E+00  0.211449848523306E+00
 -0.560523029461074E+00 -0.449536557024029E+00  0.209251842687264E+00
 -0.560523029461074E+00 -0.337641464801303E+00  0.144342414138687E+00
 -0.560523029461074E+00 -0.224951994744527E+00  0.226245205237791E-01
 -0.560523029461074E+00 -0.112343328682423E+00 -0.102277776900565E+00
 -0.560523029461074E+00  0.414186545644071E-17 -0.155729661650610E+00
 -0.560523029461074E+00  0.112343328682423E+00 -0.102277776900566E+00
 -0.560523029461074E+00  0.224951994744527E+00  0.226245205237784E-01
 -0.560523029461074E+00  0.337641464801303E+00  0.144342414138686E+00
 -0.560523029461074E+00  0.449536557024029E+00  0.209251842687264E+00
 -0.560523029461074E+00  0.560523029461074E+00  0.211449848523306E+00
 -0.560523029461074E+00  0.675337414025638E+00  0.170486129801559E+00
 -0.560523029461074E+00  0.798443291855323E+00  0.106831755515191E+00
 -0.560523029461074E+00  0.904141431802467E+00  0.501083511495199E-01
 -0.560523029461074E+00  0.975060457533844E+00  0.129576620643314E-01
 -0.560523029461074E+00  0.100000000000000E+01  0.666666666666660E-16
 -0.449536557024029E+00 -0.100000000000000E+01  0.666666666666660E-16
 -0.449536557024029E+00 -0.975060457533844E+00  0.168608722879875E-01
 -0.449536557024029E+00 -0.904141431802467E+00  0.640036216333429E-01
 -0.449536557024029E+00 -0.798443291855323E+00  0.128387694646884E+00
 -0.449536557024029E+00 -0.675337414025638E+00  0.185458306016973E+00
 -0.449536557024029E+00 -0.560523029461074E+00  0.209251842687264E+00
 -0.449536557024029E+00 -0.449536557024029E+00  0.190862869467211E+00
 -0.449536557024029E+00 -0.337641464801303E+00  0.118533452153326E+00
 -0.449536557024029E+00 -0.224951994744527E+00 -0.162009591362711E-02
 -0.449536557024029E+00 -0.112343328682423E+00 -0.122153599324276E+00
 -0.449536557024029E+00  0.414186545644071E-17 -0.173656178178651E+00
 -0.449536557024029E+00  0.112343328682423E+00 -0.122153599324277E+00
 -0.449536557024029E+00  0.224951994744527E+00 -0.162009591362815E-02
 -0.449536557024029E+00  0.337641464801303E+00  0.118533452153326E+00
 -0.449536557024029E+00  0.449536557024029E+00  0.190862869467210E+00
 -0.449536557024029E+00  0.560523029461074E+00  0.209251842687264E+00
 -0.449536557024029E+00  0.675337414025638E+00  0.185458306016974E+00
 -0.449536557024029E+00  0.798443291855323E+00  0.128387694646884E+00
 -0.449536557024029E+00  0.904141431802467E+00  0.640036216333433E-01
 -0.449536557024029E+00  0.975060457533844E+00  0.168608722879876E-01
 -0.449536557024029E+00  0.100000000000000E+01  0.000000000000000E+00
 -0.337641464801303E+00 -0.100000000000000E+01  0.000000000000000E+00
 -0.337641464801303E+00 -0.975060457533844E+00  0.140247755390830E-01
 -0.337641464801303E+00 -0.904141431802467E+00  0.526613505030796E-01
 -0.337641464801303E+00 -0.798443291855323E+00  0.101860624677866E+00
 -0.337641464801303E+00 -0.675337414025638E+00  0.137863793552143E+00
 -0.337641464801303E+00 -0.560523029461074E+00  0.144342414138687E+00
 -0.337641464801303E+00 -0.449536557024029E+00  0.118533452153326E+00
 -0.337641464801303E+00 -0.337641464801303E+00  0.510009223691988E-01
 -0.337641464801303E+00 -0.224951994744527E+00 -0.561066350447973E-01
 -0.337641464801303E+00 -0.112343328682423E+00 -0.164069963984466E+00
 -0.337641464801303E+00  0.414186545644071E-17 -0.210590537287144E+00
 -0.337641464801303E+00  0.112343328682423E+00 -0.164069963984467E+00
 -0.337641464801303E+00  0.224951994744527E+00 -0.561066350447985E-01
 -0.337641464801303E+00  0.337641464801303E+00  0.510009223691981E-01
 -0.337641464801303E+00  0.449536557024029E+00  0.118533452153326E+00
 -0.337641464801303E+00  0.560523029461074E+00  0.144342414138686E+00
 -0.337641464801303E+00  0.675337414025638E+00  0.137863793552143E+00
 -0.337641464801303E+00  0.798443291855323E+00  0.101860624677867E+00
 -0.337641464801303E+00  0.904141431802467E+00  0.526613505030798E-01
 -0.337641464801303E+00  0.975060457533844E+00  0.140247755390831E-01
 -0.337641464801303E+00  0.100000000000000E+01  0.666666666666660E-16
 -0.224951994744527E+00 -0.100000000000000E+01  0.000000000000000E+00
 -0.224951994744527E+00 -0.975060457533844E+00  0.389388662318720E-02
 -0.224951994744527E+00 -0.904141431802467E+00  0.143117294628951E-01
 -0.224951994744527E+00 -0.798443291855323E+00  0.258314908403398E-01
 -0.224951994744527E+00 -0.675337414025638E+00  0.300140925636113E-01
 -0.224951994744527E+00 -0.560523029461074E+00  0.226245205237791E-01
 -0.224951994744527E+00 -0.449536557024029E+00 -0.162009591362711E-02
 -0.224951994744527E+00 -0.337641464801303E+00 -0.561066350447973E-01
 -0.224951994744527E+00 -0.224951994744527E+00 -0.145156623971101E+00
 -0.224951994744527E+00 -0.112343328682423E+00 -0.238132560439414E+00
 -0.224951994744527E+00  0.414186545644071E-17 -0.278927119083039E+00
 -0.224951994744527E+00  0.112343328682423E+00 -0.238132560439415E+00
 -0.224951994744527E+00  0.224951994744527E+00 -0.145156623971103E+00
 -0.224951994744527E+00  0.337641464801303E+00 -0.561066350447984E-01
 -0.224951994744527E+00  0.449536557024029E+00 -0.162009591362826E-02
 -0.224951994744527E+00  0.560523029461074E+00  0.226245205237782E-01
 -0.224951994744527E+00  0.675337414025638E+00  0.300140925636107E-01
 -0.224951994744527E+00  0.798443291855323E+00  0.258314908403392E-01
 -0.224951994744527E+00  0.904141431802467E+00  0.143117294628948E-01
 -0.224951994744527E+00  0.975060457533844E+00  0.389388662318713E-02
 -0.224951994744527E+00  0.100000000000000E+01  0.666666666666660E-16
 -0.112343328682423E+00 -0.100000000000000E+01  0.000000000000000E+00
 -0.112343328682423E+00 -0.975060457533844E+00 -0.779011065542541E-02
 -0.112343328682423E+00 -0.904141431802467E+00 -0.295742654502302E-01
 -0.112343328682423E+00 -0.798443291855323E+00 -0.589537791045855E-01
 -0.112343328682423E+00 -0.675337414025638E+00 -0.851402092029096E-01
 -0.112343328682423E+00 -0.560523029461074E+00 -0.102277776900565E+00
 -0.112343328682423E+00 -0.449536557024029E+00 -0.122153599324276E+00
 -0.112343328682423E+00 -0.337641464801303E+00 -0.164069963984466E+00
 -0.112343328682423E+00 -0.224951994744527E+00 -0.238132560439414E+00
 -0.112343328682423E+00 -0.112343328682423E+00 -0.319306843816362E+00
 -0.112343328682423E+00  0.414186545644071E-17 -0.355652089015840E+00
 -0.112343328682423E+00  0.112343328682423E+00 -0.319306843816364E+00
 -0.112343328682423E+00  0.224951994744527E+00 -0.238132560439416E+00
 -0.112343328682423E+00  0.337641464801303E+00 -0.164069963984468E+00
 -0.112343328682423E+00  0.449536557024029E+00 -0.122153599324278E+00
 -0.112343328682423E+00  0.560523029461074E+00 -0.102277776900567E+00
 -0.112343328682423E+00  0.675337414025638E+00 -0.851402092029109E-01
 -0.112343328682423E+00  0.798443291855323E+00 -0.589537791045866E-01
 -0.112343328682423E+00  0.904141431802467E+00 -0.295742654502308E-01
 -0.112343328682423E+00  0.975060457533844E+00 -0.779011065542553E-02
 -0.112343328682423E+00  0.100000000000000E+01  0.666666666666660E-16
  0.414186545644071E-17 -0.100000000000000E+01  0.666666666666660E-16
  0.414186545644071E-17 -0.975060457533844E+00 -0.129268305884429E-01
  0.414186545644071E-17 -0.904141431802467E+00 -0.488302358434271E-01
  0.414186545644071E-17 -0.798443291855323E+00 -0.959162605038932E-01
  0.414186545644071E-17 -0.675337414025638E+00 -0.134823152547179E+00
  0.414186545644071E-17 -0.560523029461074E+00 -0.155729661650610E+00
  0.414186545644071E-17 -0.449536557024029E+00 -0.173656178178651E+00
  0.414186545644071E-17 -0.337641464801303E+00 -0.210590537287144E+00
  0.414186545644071E-17 -0.224951994744527E+00 -0.278927119083039E+00
  0.414186545644071E-17 -0.112343328682423E+00 -0.355652089015840E+00
  0.414186545644071E-17  0.414186545644071E-17 -0.390323496319670E+00
  0.414186545644071E-17  0.112343328682423E+00 -0.355652089015841E+00
  0.414186545644071E-17  0.224951994744527E+00 -0.278927119083041E+00
  0.414186545644071E-17  0.337641464801303E+00 -0.210590537287146E+00
  0.414186545644071E-17  0.449536557024029E+00 -0.173656178178653E+00
  0.414186545644071E-17  0.560523029461074E+00 -0.155729661650612E+00
  0.414186545644071E-17  0.675337414025638E+00 -0.134823152547180E+00
  0.414186545644071E-17  0.798443291855323E+00 -0.959162605038943E-01
  0.414186545644071E-17  0.904141431802467E+00 -0.488302358434278E-01
  0.414186545644071E-17  0.975060457533844E+00 -0.129268305884431E-01
  0.414186545644071E-17  0.100000000000000E+01  0.000000000000000E+00
  0.112343328682423E+00 -0.100000000000000E+01  0.666666666666660E-16
  0.112343328682423E+00 -0.975060457533844E+00 -0.779011065542539E-02
  0.112343328682423E+00 -0.904141431802467E+00 -0.295742654502303E-01
  0.112343328682423E+00 -0.798443291855323E+00 -0.589537791045861E-01
  0.112343328682423E+00 -0.675337414025638E+00 -0.851402092029103E-01
  0.112343328682423E+00 -0.560523029461074E+00 -0.102277776900566E+00
  0.112343328682423E+00 -0.449536557024029E+00 -0.122153599324277E+00
  0.112343328682423E+00 -0.337641464801303E+00 -0.164069963984467E+00
  0.112343328682423E+00 -0.224951994744527E+00 -0.238132560439415E+00
  0.112343328682423E+00 -0.112343328682423E+00 -0.319306843816364E+00
  0.112343328682423E+00  0.414186545644071E-17 -0.355652089015841E+00
  0.112343328682423E+00  0.112343328682423E+00 -0.319306843816366E+00
  0.112343328682423E+00  0.224951994744527E+00 -0.238132560439417E+00
  0.112343328682423E+00  0.337641464801303E+00 -0.164069963984469E+00
  0.112343328682423E+00  0.449536557024029E+00 -0.122153599324279E+00
  0.112343328682423E+00  0.560523029461074E+00 -0.102277776900568E+00
  0.112343328682423E+00  0.675337414025638E+00 -0.851402092029116E-01
  0.112343328682423E+00  0.798443291855323E+00 -0.589537791045871E-01
  0.112343328682423E+00  0.904141431802467E+00 -0.295742654502311E-01
  0.112343328682423E+00  0.975060457533844E+00 -0.779011065542565E-02
  0.112343328682423E+00  0.100000000000000E+01  0.666666666666660E-16
  0.224951994744527E+00 -0.100000000000000E+01  0.666666666666660E-16
  0.224951994744527E+00 -0.975060457533844E+00  0.389388662318707E-02
  0.224951994744527E+00 -0.904141431802467E+00  0.143117294628947E-01
  0.224951994744527E+00 -0.798443291855323E+00  0.258314908403392E-01
  0.224951994744527E+00 -0.675337414025638E+00  0.300140925636107E-01
  0.224951994744527E+00 -0.560523029461074E+00  0.226245205237784E-01
  0.224951994744527E+00 -0.449536557024029E+00 -0.162009591362815E-02
  0.224951994744527E+00 -0.337641464801303E+00 -0.561066350447985E-01
  0.224951994744527E+00 -0.224951994744527E+00 -0.145156623971103E+00
  0.224951994744527E+00 -0.112343328682423E+00 -0.238132560439416E+00
  0.224951994744527E+00  0.414186545644071E-17 -0.278927119083041E+00
  0.224951994744527E+00  0.112343328682423E+00 -0.238132560439417E+00
  0.224951994744527E+00  0.224951994744527E+00 -0.145156623971105E+00
  0.224951994744527E+00  0.337641464801303E+00 -0.561066350447999E-01
  0.224951994744527E+00  0.449536557024029E+00 -0.162009591362928E-02
  0.224951994744527E+00  0.560523029461074E+00  0.226245205237773E-01
  0.224951994744527E+00  0.675337414025638E+00  0.300140925636099E-01
  0.224951994744527E+00  0.798443291855323E+00  0.258314908403388E-01
  0.224951994744527E+00  0.904141431802467E+00  0.143117294628944E-01
  0.224951994744527E+00  0.975060457533844E+00  0.389388662318699E-02
  0.224951994744527E+00  0.100000000000000E+01  0.000000000000000E+00
  0.337641464801303E+00 -0.100000000000000E+01  0.666666666666660E-16
  0.337641464801303E+00 -0.975060457533844E+00  0.140247755390829E-01
  0.337641464801303E+00 -0.904141431802467E+00  0.526613505030794E-01
  0.337641464801303E+00 -0.798443291855323E+00  0.101860624677866E+00
  0.337641464801303E+00 -0.675337414025638E+00  0.137863793552143E+00
  0.337641464801303E+00 -0.560523029461074E+00  0.144342414138686E+00
  0.337641464801303E+00 -0.449536557024029E+00  0.118533452153326E+00
  0.337641464801303E+00 -0.337641464801303E+00  0.510009223691981E-01
  0.337641464801303E+00 -0.224951994744527E+00 -0.561066350447984E-01
  0.337641464801303E+00 -0.112343328682423E+00 -0.164069963984468E+00
  0.337641464801303E+00  0.414186545644071E-17 -0.210590537287146E+00
  0.337641464801303E+00  0.112343328682423E+00 -0.164069963984469E+00
  0.337641464801303E+00  0.224951994744527E+00 -0.561066350447999E-01
  0.337641464801303E+00  0.337641464801303E+00  0.510009223691969E-01
  0.337641464801303E+00  0.449536557024029E+00  0.118533452153325E+00
  0.337641464801303E+00  0.560523029461074E+00  0.144342414138686E+00
  0.337641464801303E+00  0.675337414025638E+00  0.137863793552143E+00
  0.337641464801303E+00  0.798443291855323E+00  0.101860624677867E+00
  0.337641464801303E+00  0.904141431802467E+00  0.526613505030798E-01
  0.337641464801303E+00  0.975060457533844E+00  0.140247755390831E-01
  0.337641464801303E+00  0.100000000000000E+01  0.000000000000000E+00
  0.449536557024029E+00 -0.100000000000000E+01  0.666666666666660E-16
  0.449536557024029E+00 -0.975060457533844E+00  0.168608722879875E-01
  0.449536557024029E+00 -0.904141431802467E+00  0.640036216333431E-01
  0.449536557024029E+00 -0.798443291855323E+00  0.128387694646884E+00
  0.449536557024029E+00 -0.675337414025638E+00  0.185458306016974E+00
  0.449536557024029E+00 -0.560523029461074E+00  0.209251842687264E+00
  0.449536557024029E+00 -0.449536557024029E+00  0.190862869467210E+00
  0.449536557024029E+00 -0.337641464801303E+00  0.118533452153326E+00
  0.449536557024029E+00 -0.224951994744527E+00 -0.162009591362826E-02
  0.449536557024029E+00 -0.112343328682423E+00 -0.122153599324278E+00
  0.449536557024029E+00  0.414186545644071E-17 -0.173656178178653E+00
  0.449536557024029E+00  0.112343328682423E+00 -0.122153599324279E+00
  0.449536557024029E+00  0.224951994744527E+00 -0.162009591362928E-02
  0.449536557024029E+00  0.337641464801303E+00  0.118533452153325E+00
  0.449536557024029E+00  0.449536557024029E+00  0.190862869467210E+00
  0.449536557024029E+00  0.560523029461074E+00  0.209251842687264E+00
  0.449536557024029E+00  0.675337414025638E+00  0.185458306016974E+00
  0.449536557024029E+00  0.798443291855323E+00  0.128387694646884E+00
  0.449536557024029E+00  0.904141431802467E+00  0.640036216333435E-01
  0.449536557024029E+00  0.975060457533844E+00  0.168608722879877E-01
  0.449536557024029E+00  0.100000000000000E+01  0.666666666666660E-16
  0.560523029461074E+00 -0.100000000000000E+01  0.000000000000000E+00
  0.560523029461074E+00 -0.975060457533844E+00  0.129576620643313E-01
  0.560523029461074E+00 -0.904141431802467E+00  0.501083511495197E-01
  0.560523029461074E+00 -0.798443291855323E+00  0.106831755515191E+00
  0.560523029461074E+00 -0.675337414025638E+00  0.170486129801558E+00
  0.560523029461074E+00 -0.560523029461074E+00  0.211449848523306E+00
  0.560523029461074E+00 -0.449536557024029E+00  0.209251842687264E+00
  0.560523029461074E+00 -0.337641464801303E+00  0.144342414138686E+00
  0.560523029461074E+00 -0.224951994744527E+00  0.226245205237782E-01
  0.560523029461074E+00 -0.112343328682423E+00 -0.102277776900567E+00
  0.560523029461074E+00  0.414186545644071E-17 -0.155729661650612E+00
  0.560523029461074E+00  0.112343328682423E+00 -0.102277776900568E+00
  0.560523029461074E+00  0.224951994744527E+00  0.226245205237773E-01
  0.560523029461074E+00  0.337641464801303E+00  0.144342414138686E+00
  0.560523029461074E+00  0.449536557024029E+00  0.209251842687264E+00
  0.560523029461074E+00  0.560523029461074E+00  0.211449848523307E+00
  0.560523029461074E+00  0.675337414025638E+00  0.170486129801559E+00
  0.560523029461074E+00  0.798443291855323E+00  0.106831755515192E+00
  0.560523029461074E+00  0.904141431802467E+00  0.501083511495200E-01
  0.560523029461074E+00  0.975060457533844E+00  0.129576620643314E-01
  0.560523029461074E+00  0.100000000000000E+01  0.666666666666660E-16
  0.675337414025638E+00 -0.100000000000000E+01  0.666666666666660E-16
  0.675337414025638E+00 -0.975060457533844E+00  0.649009078038165E-02
  0.675337414025638E+00 -0.904141431802467E+00  0.261785178668169E-01
  0.675337414025638E+00 -0.798443291855323E+00  0.633007365071317E-01
  0.675337414025638E+00 -0.675337414025638E+00  0.120041150455565E+00
  0.675337414025638E+00 -0.560523029461074E+00  0.170486129801559E+00
  0.675337414025638E+00 -0.449536557024029E+00  0.185458306016974E+00
  0.675337414025638E+00 -0.337641464801303E+00  0.137863793552143E+00
  0.675337414025638E+00 -0.224951994744527E+00  0.300140925636107E-01
  0.675337414025638E+00 -0.112343328682423E+00 -0.851402092029109E-01
  0.675337414025638E+00  0.414186545644071E-17 -0.134823152547180E+00
  0.675337414025638E+00  0.112343328682423E+00 -0.851402092029116E-01
  0.675337414025638E+00  0.224951994744527E+00  0.300140925636099E-01
  0.675337414025638E+00  0.337641464801303E+00  0.137863793552143E+00
  0.675337414025638E+00  0.449536557024029E+00  0.185458306016974E+00
  0.675337414025638E+00  0.560523029461074E+00  0.170486129801559E+00
  0.675337414025638E+00  0.675337414025638E+00  0.120041150455566E+00
  0.675337414025638E+00  0.798443291855323E+00  0.633007365071324E-01
  0.675337414025638E+00  0.904141431802467E+00  0.261785178668172E-01
  0.675337414025638E+00  0.975060457533844E+00  0.649009078038180E-02
  0.675337414025638E+00  0.100000000000000E+01  0.000000000000000E+00
  0.798443291855323E+00 -0.100000000000000E+01  0.000000000000000E+00
  0.798443291855323E+00 -0.975060457533844E+00  0.154726104805194E-02
  0.798443291855323E+00 -0.904141431802467E+00  0.728066635084110E-02
  0.798443291855323E+00 -0.798443291855323E+00  0.246509555852124E-01
  0.798443291855323E+00 -0.675337414025638E+00  0.633007365071319E-01
  0.798443291855323E+00 -0.560523029461074E+00  0.106831755515191E+00
  0.798443291855323E+00 -0.449536557024029E+00  0.128387694646884E+00
  0.798443291855323E+00 -0.337641464801303E+00  0.101860624677867E+00
  0.798443291855323E+00 -0.224951994744527E+00  0.258314908403392E-01
  0.798443291855323E+00 -0.112343328682423E+00 -0.589537791045866E-01
  0.798443291855323E+00  0.414186545644071E-17 -0.959162605038943E-01
  0.798443291855323E+00  0.112343328682423E+00 -0.589537791045871E-01
  0.798443291855323E+00  0.224951994744527E+00  0.258314908403388E-01
  0.798443291855323E+00  0.337641464801303E+00  0.101860624677867E+00
  0.798443291855323E+00  0.449536557024029E+00  0.128387694646884E+00
  0.798443291855323E+00  0.560523029461074E+00  0.106831755515192E+00
  0.798443291855323E+00  0.675337414025638E+00  0.633007365071324E-01
  0.798443291855323E+00  0.798443291855323E+00  0.246509555852130E-01
  0.798443291855323E+00  0.904141431802467E+00  0.728066635084126E-02
  0.798443291855323E+00  0.975060457533844E+00  0.154726104805193E-02
  0.798443291855323E+00  0.100000000000000E+01  0.000000000000000E+00
  0.904141431802467E+00 -0.100000000000000E+01  0.000000000000000E+00
  0.904141431802467E+00 -0.975060457533844E+00  0.265374126572256E-04
  0.904141431802467E+00 -0.904141431802467E+00  0.866978894841654E-03
  0.904141431802467E+00 -0.798443291855323E+00  0.728066635084108E-02
  0.904141431802467E+00 -0.675337414025638E+00  0.261785178668170E-01
  0.904141431802467E+00 -0.560523029461074E+00  0.501083511495199E-01
  0.904141431802467E+00 -0.449536557024029E+00  0.640036216333433E-01
  0.904141431802467E+00 -0.337641464801303E+00  0.526613505030798E-01
  0.904141431802467E+00 -0.224951994744527E+00  0.143117294628948E-01
  0.904141431802467E+00 -0.112343328682423E+00 -0.295742654502308E-01
  0.904141431802467E+00  0.414186545644071E-17 -0.488302358434278E-01
  0.904141431802467E+00  0.112343328682423E+00 -0.295742654502311E-01
  0.904141431802467E+00  0.224951994744527E+00  0.143117294628944E-01
  0.904141431802467E+00  0.337641464801303E+00  0.526613505030798E-01
  0.904141431802467E+00  0.449536557024029E+00  0.640036216333435E-01
  0.904141431802467E+00  0.560523029461074E+00  0.501083511495200E-01
  0.904141431802467E+00  0.675337414025638E+00  0.261785178668172E-01
  0.904141431802467E+00  0.798443291855323E+00  0.728066635084126E-02
  0.904141431802467E+00  0.904141431802467E+00  0.866978894841922E-03
  0.904141431802467E+00  0.975060457533844E+00  0.265374126573302E-04
  0.904141431802467E+00  0.100000000000000E+01  0.000000000000000E+00
  0.975060457533844E+00 -0.100000000000000E+01  0.000000000000000E+00
  0.975060457533844E+00 -0.975060457533844E+00 -0.472123192841190E-04
  0.975060457533844E+00 -0.904141431802467E+00  0.265374126571957E-04
  0.975060457533844E+00 -0.798443291855323E+00  0.154726104805194E-02
  0.975060457533844E+00 -0.675337414025638E+00  0.649009078038175E-02
  0.975060457533844E+00 -0.560523029461074E+00  0.129576620643314E-01
  0.975060457533844E+00 -0.449536557024029E+00  0.168608722879876E-01
  0.975060457533844E+00 -0.337641464801303E+00  0.140247755390831E-01
  0.975060457533844E+00 -0.224951994744527E+00  0.389388662318713E-02
  0.975060457533844E+00 -0.112343328682423E+00 -0.779011065542553E-02
  0.975060457533844E+00  0.414186545644071E-17 -0.129268305884431E-01
  0.975060457533844E+00  0.112343328682423E+00 -0.779011065542565E-02
  0.975060457533844E+00  0.224951994744527E+00  0.389388662318699E-02
  0.975060457533844E+00  0.337641464801303E+00  0.140247755390831E-01
  0.975060457533844E+00  0.449536557024029E+00  0.168608722879877E-01
  0.975060457533844E+00  0.560523029461074E+00  0.129576620643314E-01
  0.975060457533844E+00  0.675337414025638E+00  0.649009078038180E-02
  0.975060457533844E+00  0.798443291855323E+00  0.154726104805193E-02
  0.975060457533844E+00  0.904141431802467E+00  0.265374126573302E-04
  0.975060457533844E+00  0.975060457533844E+00 -0.472123192840417E-04
  0.975060457533844E+00  0.100000000000000E+01  0.666666666666660E-16
  0.100000000000000E+01 -0.100000000000000E+01  0.000000000000000E+00
  0.100000000000000E+01 -0.975060457533844E+00  0.666666666666660E-16
  0.100000000000000E+01 -0.904141431802467E+00  0.666666666666660E-16
  0.100000000000000E+01 -0.798443291855323E+00  0.666666666666660E-16
  0.100000000000000E+01 -0.675337414025638E+00  0.666666666666660E-16
  0.100000000000000E+01 -0.560523029461074E+00  0.000000000000000E+00
  0.100000000000000E+01 -0.449536557024029E+00  0.666666666666660E-16