 VARIABLES =  $x$  (a)
 ZONE I=         441 ,DATAPACKING=POINT
 -0.100000000000000E+01 -0.100000000000000E+01  0.000000000000000E+00
 -0.100000000000000E+01 -0.975060457533844E+00  0.000000000000000E+00
 -0.100000000000000E+01 -0.904141431802467E+00  0.000000000000000E+00
 -0.100000000000000E+01 -0.798443291855323E+00  0.000000000000000E+00
 -0.100000000000000E+01 -0.675337414025638E+00  0.000000000000000E+00
 -0.100000000000000E+01 -0.560523029461074E+00  0.000000000000000E+00
 -0.100000000000000E+01 -0.449536557024029E+00  0.000000000000000E+00
 -0.100000000000000E+01 -0.337641464801303E+00  0.000000000000000E+00
 -0.100000000000000E+01 -0.224951994744527E+00  0.000000000000000E+00
 -0.100000000000000E+01 -0.112343328682423E+00  0.000000000000000E+00
 -0.100000000000000E+01  0.414186545644071E-17  0.000000000000000E+00
 -0.100000000000000E+01  0.112343328682423E+00  0.000000000000000E+00
 -0.100000000000000E+01  0.224951994744527E+00  0.000000000000000E+00
 -0.100000000000000E+01  0.337641464801303E+00  0.000000000000000E+00
 -0.100000000000000E+01  0.449536557024029E+00  0.000000000000000E+00
 -0.100000000000000E+01  0.560523029461074E+00  0.000000000000000E+00
 -0.100000000000000E+01  0.675337414025638E+00  0.000000000000000E+00
 -0.100000000000000E+01  0.798443291855323E+00  0.000000000000000E+00
 -0.100000000000000E+01  0.904141431802467E+00  0.000000000000000E+00
 -0.100000000000000E+01  0.975060457533844E+00  0.000000000000000E+00
 -0.100000000000000E+01  0.100000000000000E+01  0.000000000000000E+00
 -0.975060457533844E+00 -0.100000000000000E+01  0.000000000000000E+00
 -0.975060457533844E+00 -0.975060457533844E+00  0.552016593223245E-08
 -0.975060457533844E+00 -0.904141431802467E+00  0.209286616741340E-07
 -0.975060457533844E+00 -0.798443291855323E+00  0.126560439338405E-06
 -0.975060457533844E+00 -0.675337414025638E+00  0.776681728527115E-06
 -0.975060457533844E+00 -0.560523029461074E+00  0.320983949373795E-05
 -0.975060457533844E+00 -0.449536557024029E+00  0.984782322615431E-05
 -0.975060457533844E+00 -0.337641464801303E+00  0.237614379387645E-04
 -0.975060457533844E+00 -0.224951994744527E+00  0.447928084160515E-04
 -0.975060457533844E+00 -0.112343328682423E+00  0.654882910790030E-04
 -0.975060457533844E+00  0.414186545644071E-17  0.742978191620215E-04
 -0.975060457533844E+00  0.112343328682423E+00  0.654882910790030E-04
 -0.975060457533844E+00  0.224951994744527E+00  0.447928084160515E-04
 -0.975060457533844E+00  0.337641464801303E+00  0.237614379387645E-04
 -0.975060457533844E+00  0.449536557024029E+00  0.984782322615431E-05
 -0.975060457533844E+00  0.560523029461074E+00  0.320983949373795E-05
 -0.975060457533844E+00  0.675337414025638E+00  0.776681728527115E-06
 -0.975060457533844E+00  0.798443291855323E+00  0.126560439338405E-06
 -0.975060457533844E+00  0.904141431802467E+00  0.209286616741340E-07
 -0.975060457533844E+00  0.975060457533844E+00  0.552016593223245E-08
 -0.975060457533844E+00  0.100000000000000E+01  0.000000000000000E+00
 -0.904141431802467E+00 -0.100000000000000E+01  0.000000000000000E+00
 -0.904141431802467E+00 -0.975060457533844E+00  0.209286616741340E-07
 -0.904141431802467E+00 -0.904141431802467E+00  0.793470494995117E-07
 -0.904141431802467E+00 -0.798443291855323E+00  0.479829890760555E-06
 -0.904141431802467E+00 -0.675337414025638E+00  0.294464139744651E-05
 -0.904141431802467E+00 -0.560523029461074E+00  0.121694973697190E-04
 -0.904141431802467E+00 -0.449536557024029E+00  0.373361531260187E-04
 -0.904141431802467E+00 -0.337641464801303E+00  0.900869831842572E-04
 -0.904141431802467E+00 -0.224951994744527E+00  0.169823433621808E-03
 -0.904141431802467E+00 -0.112343328682423E+00  0.248286429146411E-03
 -0.904141431802467E+00  0.414186545644071E-17  0.281686083254945E-03
 -0.904141431802467E+00  0.112343328682423E+00  0.248286429146411E-03
 -0.904141431802467E+00  0.224951994744527E+00  0.169823433621808E-03
 -0.904141431802467E+00  0.337641464801303E+00  0.900869831842572E-04
 -0.904141431802467E+00  0.449536557024029E+00  0.373361531260187E-04
 -0.904141431802467E+00  0.560523029461074E+00  0.121694973697190E-04
 -0.904141431802467E+00  0.675337414025638E+00  0.294464139744651E-05
 -0.904141431802467E+00  0.798443291855323E+00  0.479829890760555E-06
 -0.904141431802467E+00  0.904141431802467E+00  0.793470494995117E-07
 -0.904141431802467E+00  0.975060457533844E+00  0.209286616741340E-07
 -0.904141431802467E+00  0.100000000000000E+01  0.000000000000000E+00
 -0.798443291855323E+00 -0.100000000000000E+01  0.000000000000000E+00
 -0.798443291855323E+00 -0.975060457533844E+00  0.126560439338405E-06
 -0.798443291855323E+00 -0.904141431802467E+00  0.479829890760555E-06
 -0.798443291855323E+00 -0.798443291855323E+00  0.290164190753814E-05
 -0.798443291855323E+00 -0.675337414025638E+00  0.178069250082760E-04
 -0.798443291855323E+00 -0.560523029461074E+00  0.735917545813605E-04
 -0.798443291855323E+00 -0.449536557024029E+00  0.225780320615289E-03
 -0.798443291855323E+00 -0.337641464801303E+00  0.544776744351611E-03
 -0.798443291855323E+00 -0.224951994744527E+00  0.102696143230677E-02
 -0.798443291855323E+00 -0.112343328682423E+00  0.150144524498524E-02
 -0.798443291855323E+00  0.414186545644071E-17  0.170342064902893E-02
 -0.798443291855323E+00  0.112343328682423E+00  0.150144524498524E-02
 -0.798443291855323E+00  0.224951994744527E+00  0.102696143230677E-02
 -0.798443291855323E+00  0.337641464801303E+00  0.544776744351611E-03
 -0.798443291855323E+00  0.449536557024029E+00  0.225780320615289E-03
 -0.798443291855323E+00  0.560523029461074E+00  0.735917545813605E-04
 -0.798443291855323E+00  0.675337414025638E+00  0.178069250082760E-04
 -0.798443291855323E+00  0.798443291855323E+00  0.290164190753814E-05
 -0.798443291855323E+00  0.904141431802467E+00  0.479829890760555E-06
 -0.798443291855323E+00  0.975060457533844E+00  0.126560439338405E-06
 -0.798443291855323E+00  0.100000000000000E+01  0.000000000000000E+00
 -0.675337414025638E+00 -0.100000000000000E+01  0.000000000000000E+00
 -0.675337414025638E+00 -0.975060457533844E+00  0.776681728527115E-06
 -0.675337414025638E+00 -0.904141431802467E+00  0.294464139744651E-05
 -0.675337414025638E+00 -0.798443291855323E+00  0.178069250082760E-04
 -0.675337414025638E+00 -0.675337414025638E+00  0.109278328737468E-03
 -0.675337414025638E+00 -0.560523029461074E+00  0.451621149961115E-03
 -0.675337414025638E+00 -0.449536557024029E+00  0.138557870531724E-02
 -0.675337414025638E+00 -0.337641464801303E+00  0.334321013482756E-02
 -0.675337414025638E+00 -0.224951994744527E+00  0.630230255634602E-02
 -0.675337414025638E+00 -0.112343328682423E+00  0.921413590423662E-02
 -0.675337414025638E+00  0.414186545644071E-17  0.104536275396375E-01
 -0.675337414025638E+00  0.112343328682423E+00  0.921413590423662E-02
 -0.675337414025638E+00  0.224951994744527E+00  0.630230255634602E-02
 -0.675337414025638E+00  0.337641464801303E+00  0.334321013482756E-02
 -0.675337414025638E+00  0.449536557024029E+00  0.138557870531724E-02
 -0.675337414025638E+00  0.560523029461074E+00  0.451621149961115E-03
 -0.675337414025638E+00  0.675337414025638E+00  0.109278328737468E-03
 -0.675337414025638E+00  0.798443291855323E+00  0.178069250082760E-04
 -0.675337414025638E+00  0.904141431802467E+00  0.294464139744651E-05
 -0.675337414025638E+00  0.975060457533844E+00  0.776681728527115E-06
 -0.675337414025638E+00  0.100000000000000E+01  0.000000000000000E+00
 -0.560523029461074E+00 -0.100000000000000E+01  0.000000000000000E+00
 -0.560523029461074E+00 -0.975060457533844E+00  0.320983949373795E-05
 -0.560523029461074E+00 -0.904141431802467E+00  0.121694973697190E-04
 -0.560523029461074E+00 -0.798443291855323E+00  0.735917545813605E-04
 -0.560523029461074E+00 -0.675337414025638E+00  0.451621149961115E-03
 -0.560523029461074E+00 -0.560523029461074E+00  0.186644200591868E-02
 -0.560523029461074E+00 -0.449536557024029E+00  0.572626480919503E-02
 -0.560523029461074E+00 -0.337641464801303E+00  0.138166864656194E-01
 -0.560523029461074E+00 -0.224951994744527E+00  0.260459064554122E-01
 -0.560523029461074E+00 -0.112343328682423E+00  0.380798160170122E-01
 -0.560523029461074E+00  0.414186545644071E-17  0.432023379682012E-01
 -0.560523029461074E+00  0.112343328682423E+00  0.380798160170122E-01
 -0.560523029461074E+00  0.224951994744527E+00  0.260459064554122E-01
 -0.560523029461074E+00  0.337641464801303E+00  0.138166864656194E-01
 -0.560523029461074E+00  0.449536557024029E+00  0.572626480919503E-02
 -0.560523029461074E+00  0.560523029461074E+00  0.186644200591868E-02
 -0.560523029461074E+00  0.675337414025638E+00  0.451621149961115E-03
 -0.560523029461074E+00  0.798443291855323E+00  0.735917545813605E-04
 -0.560523029461074E+00  0.904141431802467E+00  0.121694973697190E-04
 -0.560523029461074E+00  0.975060457533844E+00  0.320983949373795E-05
 -0.560523029461074E+00  0.100000000000000E+01  0.000000000000000E+00
 -0.449536557024029E+00 -0.100000000000000E+01  0.000000000000000E+00
 -0.449536557024029E+00 -0.975060457533844E+00  0.984782322615431E-05
 -0.449536557024029E+00 -0.904141431802467E+00  0.373361531260187E-04
 -0.449536557024029E+00 -0.798443291855323E+00  0.225780320615289E-03
 -0.449536557024029E+00 -0.675337414025638E+00  0.138557870531724E-02
 -0.449536557024029E+00 -0.560523029461074E+00  0.572626480919503E-02
 -0.449536557024029E+00 -0.449536557024029E+00  0.175682440499328E-01
 -0.449536557024029E+00 -0.337641464801303E+00  0.423897475715112E-01
 -0.449536557024029E+00 -0.224951994744527E+00  0.799091303593983E-01
 -0.449536557024029E+00 -0.112343328682423E+00  0.116829298583810E+00
 -0.449536557024029E+00  0.414186545644071E-17  0.132545252838164E+00
 -0.449536557024029E+00  0.112343328682423E+00  0.116829298583810E+00
 -0.449536557024029E+00  0.224951994744527E+00  0.799091303593983E-01
 -0.449536557024029E+00  0.337641464801303E+00  0.423897475715112E-01
 -0.449536557024029E+00  0.449536557024029E+00  0.175682440499328E-01
 -0.449536557024029E+00  0.560523029461074E+00  0.572626480919503E-02
 -0.449536557024029E+00  0.675337414025638E+00  0.138557870531724E-02
 -0.449536557024029E+00  0.798443291855323E+00  0.225780320615289E-03
 -0.449536557024029E+00  0.904141431802467E+00  0.373361531260187E-04
 -0.449536557024029E+00  0.975060457533844E+00  0.984782322615431E-05
 -0.449536557024029E+00  0.100000000000000E+01  0.000000000000000E+00
 -0.337641464801303E+00 -0.100000000000000E+01  0.000000000000000E+00
 -0.337641464801303E+00 -0.975060457533844E+00  0.237614379387645E-04
 -0.337641464801303E+00 -0.904141431802467E+00  0.900869831842572E-04
 -0.337641464801303E+00 -0.798443291855323E+00  0.544776744351611E-03
 -0.337641464801303E+00 -0.675337414025638E+00  0.334321013482756E-02
 -0.337641464801303E+00 -0.560523029461074E+00  0.138166864656194E-01
 -0.337641464801303E+00 -0.449536557024029E+00  0.423897475715112E-01
 -0.337641464801303E+00 -0.337641464801303E+00  0.102280608925359E+00
 -0.337641464801303E+00 -0.224951994744527E+00  0.192809699988590E+00
 -0.337641464801303E+00 -0.112343328682423E+00  0.281892969032574E+00
 -0.337641464801303E+00  0.414186545644071E-17  0.319813397038584E+00
 -0.337641464801303E+00  0.112343328682423E+00  0.281892969032574E+00
 -0.337641464801303E+00  0.224951994744527E+00  0.192809699988590E+00
 -0.337641464801303E+00  0.337641464801303E+00  0.102280608925359E+00
 -0.337641464801303E+00  0.449536557024029E+00  0.423897475715112E-01
 -0.337641464801303E+00  0.560523029461074E+00  0.138166864656194E-01
 -0.337641464801303E+00  0.675337414025638E+00  0.334321013482756E-02
 -0.337641464801303E+00  0.798443291855323E+00  0.544776744351611E-03
 -0.337641464801303E+00  0.904141431802467E+00  0.900869831842572E-04
 -0.337641464801303E+00  0.975060457533844E+00  0.237614379387645E-04
 -0.337641464801303E+00  0.100000000000000E+01  0.000000000000000E+00
 -0.224951994744527E+00 -0.100000000000000E+01  0.000000000000000E+00
 -0.224951994744527E+00 -0.975060457533844E+00  0.447928084160515E-04
 -0.224951994744527E+00 -0.904141431802467E+00  0.169823433621808E-03
 -0.224951994744527E+00 -0.798443291855323E+00  0.102696143230677E-02
 -0.224951994744527E+00 -0.675337414025638E+00  0.630230255634602E-02
 -0.224951994744527E+00 -0.560523029461074E+00  0.260459064554122E-01
 -0.224951994744527E+00 -0.449536557024029E+00  0.799091303593983E-01
 -0.224951994744527E+00 -0.337641464801303E+00  0.192809699988590E+00
 -0.224951994744527E+00 -0.224951994744527E+00  0.363466553438490E+00
 -0.224951994744527E+00 -0.112343328682423E+00  0.531397880391265E+00
 -0.224951994744527E+00  0.414186545644071E-17  0.602881873536176E+00
 -0.224951994744527E+00  0.112343328682423E+00  0.531397880391265E+00
 -0.224951994744527E+00  0.224951994744527E+00  0.363466553438490E+00
 -0.224951994744527E+00  0.337641464801303E+00  0.192809699988590E+00
 -0.224951994744527E+00  0.449536557024029E+00  0.799091303593983E-01
 -0.224951994744527E+00  0.560523029461074E+00  0.260459064554122E-01
 -0.224951994744527E+00  0.675337414025638E+00  0.630230255634602E-02
 -0.224951994744527E+00  0.798443291855323E+00  0.102696143230677E-02
 -0.224951994744527E+00  0.904141431802467E+00  0.169823433621808E-03
 -0.224951994744527E+00  0.975060457533844E+00  0.447928084160515E-04
 -0.224951994744527E+00  0.100000000000000E+01  0.000000000000000E+00
 -0.112343328682423E+00 -0.100000000000000E+01  0.000000000000000E+00
 -0.112343328682423E+00 -0.975060457533844E+00  0.654882910790030E-04
 -0.112343328682423E+00 -0.904141431802467E+00  0.248286429146411E-03
 -0.112343328682423E+00 -0.798443291855323E+00  0.150144524498524E-02
 -0.112343328682423E+00 -0.675337414025638E+00  0.921413590423662E-02
 -0.112343328682423E+00 -0.560523029461074E+00  0.380798160170122E-01
 -0.112343328682423E+00 -0.449536557024029E+00  0.116829298583810E+00
 -0.112343328682423E+00 -0.337641464801303E+00  0.281892969032574E+00
 -0.112343328682423E+00 -0.224951994744527E+00  0.531397880391265E+00
 -0.112343328682423E+00 -0.112343328682423E+00  0.776917998679396E+00
 -0.112343328682423E+00  0.414186545644071E-17  0.881429519972752E+00
 -0.112343328682423E+00  0.112343328682423E+00  0.776917998679396E+00
 -0.112343328682423E+00  0.224951994744527E+00  0.531397880391265E+00
 -0.112343328682423E+00  0.337641464801303E+00  0.281892969032574E+00
 -0.112343328682423E+00  0.449536557024029E+00  0.116829298583810E+00
 -0.112343328682423E+00  0.560523029461074E+00  0.380798160170122E-01
 -0.112343328682423E+00  0.675337414025638E+00  0.921413590423662E-02
 -0.112343328682423E+00  0.798443291855323E+00  0.150144524498524E-02
 -0.112343328682423E+00  0.904141431802467E+00  0.248286429146411E-03
 -0.112343328682423E+00  0.975060457533844E+00  0.654882910790030E-04
 -0.112343328682423E+00  0.100000000000000E+01  0.000000000000000E+00
  0.414186545644071E-17 -0.100000000000000E+01  0.000000000000000E+00
  0.414186545644071E-17 -0.975060457533844E+00  0.742978191620215E-04
  0.414186545644071E-17 -0.904141431802467E+00  0.281686083254945E-03
  0.414186545644071E-17 -0.798443291855323E+00  0.170342064902893E-02
  0.414186545644071E-17 -0.675337414025638E+00  0.104536275396375E-01
  0.414186545644071E-17 -0.560523029461074E+00  0.432023379682012E-01
  0.414186545644071E-17 -0.449536557024029E+00  0.132545252838164E+00
  0.414186545644071E-17 -0.337641464801303E+00  0.319813397038584E+00
  0.414186545644071E-17 -0.224951994744527E+00  0.602881873536176E+00
  0.414186545644071E-17 -0.112343328682423E+00  0.881429519972752E+00
  0.414186545644071E-17  0.414186545644071E-17  0.100000000000000E+01
  0.414186545644071E-17  0.112343328682423E+00  0.881429519972752E+00
  0.414186545644071E-17  0.224951994744527E+00  0.602881873536176E+00
  0.414186545644071E-17  0.337641464801303E+00  0.319813397038584E+00
  0.414186545644071E-17  0.449536557024029E+00  0.132545252838164E+00
  0.414186545644071E-17  0.560523029461074E+00  0.432023379682012E-01
  0.414186545644071E-17  0.675337414025638E+00  0.104536275396375E-01
  0.414186545644071E-17  0.798443291855323E+00  0.170342064902893E-02
  0.414186545644071E-17  0.904141431802467E+00  0.281686083254945E-03
  0.414186545644071E-17  0.975060457533844E+00  0.742978191620215E-04
  0.414186545644071E-17  0.100000000000000E+01  0.000000000000000E+00
  0.112343328682423E+00 -0.100000000000000E+01  0.000000000000000E+00
  0.112343328682423E+00 -0.975060457533844E+00  0.654882910790030E-04
  0.112343328682423E+00 -0.904141431802467E+00  0.248286429146411E-03
  0.112343328682423E+00 -0.798443291855323E+00  0.150144524498524E-02
  0.112343328682423E+00 -0.675337414025638E+00  0.921413590423662E-02
  0.112343328682423E+00 -0.560523029461074E+00  0.380798160170122E-01
  0.112343328682423E+00 -0.449536557024029E+00  0.116829298583810E+00
  0.112343328682423E+00 -0.337641464801303E+00  0.281892969032574E+00
  0.112343328682423E+00 -0.224951994744527E+00  0.531397880391265E+00
  0.112343328682423E+00 -0.112343328682423E+00  0.776917998679396E+00
  0.112343328682423E+00  0.414186545644071E-17  0.881429519972752E+00
  0.112343328682423E+00  0.112343328682423E+00  0.776917998679396E+00
  0.112343328682423E+00  0.224951994744527E+00  0.531397880391265E+00
  0.112343328682423E+00  0.337641464801303E+00  0.281892969032574E+00
  0.112343328682423E+00  0.449536557024029E+00  0.116829298583810E+00
  0.112343328682423E+00  0.560523029461074E+00  0.380798160170122E-01
  0.112343328682423E+00  0.675337414025638E+00  0.921413590423662E-02
  0.112343328682423E+00  0.798443291855323E+00  0.150144524498524E-02
  0.112343328682423E+00  0.904141431802467E+00  0.248286429146411E-03
  0.112343328682423E+00  0.975060457533844E+00  0.654882910790030E-04
  0.112343328682423E+00  0.100000000000000E+01  0.000000000000000E+00
  0.224951994744527E+00 -0.100000000000000E+01  0.000000000000000E+00
  0.224951994744527E+00 -0.975060457533844E+00  0.447928084160515E-04
  0.224951994744527E+00 -0.904141431802467E+00  0.169823433621808E-03
  0.224951994744527E+00 -0.798443291855323E+00  0.102696143230677E-02
  0.224951994744527E+00 -0.675337414025638E+00  0.630230255634602E-02
  0.224951994744527E+00 -0.560523029461074E+00  0.260459064554122E-01
  0.224951994744527E+00 -0.449536557024029E+00  0.799091303593983E-01
  0.224951994744527E+00 -0.337641464801303E+00  0.192809699988590E+00
  0.224951994744527E+00 -0.224951994744527E+00  0.363466553438490E+00
  0.224951994744527E+00 -0.112343328682423E+00  0.531397880391265E+00
  0.224951994744527E+00  0.414186545644071E-17  0.602881873536176E+00
  0.224951994744527E+00  0.112343328682423E+00  0.531397880391265E+00
  0.224951994744527E+00  0.224951994744527E+00  0.363466553438490E+00
  0.224951994744527E+00  0.337641464801303E+00  0.192809699988590E+00
  0.224951994744527E+00  0.449536557024029E+00  0.799091303593983E-01
  0.224951994744527E+00  0.560523029461074E+00  0.260459064554122E-01
  0.224951994744527E+00  0.675337414025638E+00  0.630230255634602E-02
  0.224951994744527E+00  0.798443291855323E+00  0.102696143230677E-02
  0.224951994744527E+00  0.904141431802467E+00  0.169823433621808E-03
  0.224951994744527E+00  0.975060457533844E+00  0.447928084160515E-04
  0.224951994744527E+00  0.100000000000000E+01  0.000000000000000E+00
  0.337641464801303E+00 -0.100000000000000E+01  0.000000000000000E+00
  0.337641464801303E+00 -0.975060457533844E+00  0.237614379387645E-04
  0.337641464801303E+00 -0.904141431802467E+00  0.900869831842572E-04
  0.337641464801303E+00 -0.798443291855323E+00  0.544776744351611E-03
  0.337641464801303E+00 -0.675337414025638E+00  0.334321013482756E-02
  0.337641464801303E+00 -0.560523029461074E+00  0.138166864656194E-01
  0.337641464801303E+00 -0.449536557024029E+00  0.423897475715112E-01
  0.337641464801303E+00 -0.337641464801303E+00  0.102280608925359E+00
  0.337641464801303E+00 -0.224951994744527E+00  0.192809699988590E+00
  0.337641464801303E+00 -0.112343328682423E+00  0.281892969032574E+00
  0.337641464801303E+00  0.414186545644071E-17  0.319813397038584E+00
  0.337641464801303E+00  0.112343328682423E+00  0.281892969032574E+00
  0.337641464801303E+00  0.224951994744527E+00  0.192809699988590E+00
  0.337641464801303E+00  0.337641464801303E+00  0.102280608925359E+00
  0.337641464801303E+00  0.449536557024029E+00  0.423897475715112E-01
  0.337641464801303E+00  0.560523029461074E+00  0.138166864656194E-01
  0.337641464801303E+00  0.675337414025638E+00  0.334321013482756E-02
  0.337641464801303E+00  0.798443291855323E+00  0.544776744351611E-03
  0.337641464801303E+00  0.904141431802467E+00  0.900869831842572E-04
  0.337641464801303E+00  0.975060457533844E+00  0.237614379387645E-04
  0.337641464801303E+00  0.100000000000000E+01  0.000000000000000E+00
  0.449536557024029E+00 -0.100000000000000E+01  0.000000000000000E+00
  0.449536557024029E+00 -0.975060457533844E+00  0.984782322615431E-05
  0.449536557024029E+00 -0.904141431802467E+00  0.373361531260187E-04
  0.449536557024029E+00 -0.798443291855323E+00  0.225780320615289E-03
  0.449536557024029E+00 -0.675337414025638E+00  0.138557870531724E-02
  0.449536557024029E+00 -0.560523029461074E+00  0.572626480919503E-02
  0.449536557024029E+00 -0.449536557024029E+00  0.175682440499328E-01
  0.449536557024029E+00 -0.337641464801303E+00  0.423897475715112E-01
  0.449536557024029E+00 -0.224951994744527E+00  0.799091303593983E-01
  0.449536557024029E+00 -0.112343328682423E+00  0.116829298583810E+00
  0.449536557024029E+00  0.414186545644071E-17  0.132545252838164E+00
  0.449536557024029E+00  0.112343328682423E+00  0.116829298583810E+00
  0.449536557024029E+00  0.224951994744527E+00  0.799091303593983E-01
  0.449536557024029E+00  0.337641464801303E+00  0.423897475715112E-01
  0.449536557024029E+00  0.449536557024029E+00  0.175682440499328E-01
  0.449536557024029E+00  0.560523029461074E+00  0.572626480919503E-02
  0.449536557024029E+00  0.675337414025638E+00  0.138557870531724E-02
  0.449536557024029E+00  0.798443291855323E+00  0.225780320615289E-03
  0.449536557024029E+00  0.904141431802467E+00  0.373361531260187E-04
  0.449536557024029E+00  0.975060457533844E+00  0.984782322615431E-05
  0.449536557024029E+00  0.100000000000000E+01  0.000000000000000E+00
  0.560523029461074E+00 -0.100000000000000E+01  0.000000000000000E+00
  0.560523029461074E+00 -0.975060457533844E+00  0.320983949373795E-05
  0.560523029461074E+00 -0.904141431802467E+00  0.121694973697190E-04
  0.560523029461074E+00 -0.798443291855323E+00  0.735917545813605E-04
  0.560523029461074E+00 -0.675337414025638E+00  0.451621149961115E-03
  0.560523029461074E+00 -0.560523029461074E+00  0.186644200591868E-02
  0.560523029461074E+00 -0.449536557024029E+00  0.572626480919503E-02
  0.560523029461074E+00 -0.337641464801303E+00  0.138166864656194E-01
  0.560523029461074E+00 -0.224951994744527E+00  0.260459064554122E-01
  0.560523029461074E+00 -0.112343328682423E+00  0.380798160170122E-01
  0.560523029461074E+00  0.414186545644071E-17  0.432023379682012E-01
  0.560523029461074E+00  0.112343328682423E+00  0.380798160170122E-01
  0.560523029461074E+00  0.224951994744527E+00  0.260459064554122E-01
  0.560523029461074E+00  0.337641464801303E+00  0.138166864656194E-01
  0.560523029461074E+00  0.449536557024029E+00  0.572626480919503E-02
  0.560523029461074E+00  0.560523029461074E+00  0.186644200591868E-02
  0.560523029461074E+00  0.675337414025638E+00  0.451621149961115E-03
  0.560523029461074E+00  0.798443291855323E+00  0.735917545813605E-04
  0.560523029461074E+00  0.904141431802467E+00  0.121694973697190E-04
  0.560523029461074E+00  0.975060457533844E+00  0.320983949373795E-05
  0.560523029461074E+00  0.100000000000000E+01  0.000000000000000E+00
  0.675337414025638E+00 -0.100000000000000E+01  0.000000000000000E+00
  0.675337414025638E+00 -0.975060457533844E+00  0.776681728527115E-06
  0.675337414025638E+00 -0.904141431802467E+00  0.294464139744651E-05
  0.675337414025638E+00 -0.798443291855323E+00  0.178069250082760E-04
  0.675337414025638E+00 -0.675337414025638E+00  0.109278328737468E-03
  0.675337414025638E+00 -0.560523029461074E+00  0.451621149961115E-03
  0.675337414025638E+00 -0.449536557024029E+00  0.138557870531724E-02
  0.675337414025638E+00 -0.337641464801303E+00  0.334321013482756E-02
  0.675337414025638E+00 -0.224951994744527E+00  0.630230255634602E-02
  0.675337414025638E+00 -0.112343328682423E+00  0.921413590423662E-02
  0.675337414025638E+00  0.414186545644071E-17  0.104536275396375E-01
  0.675337414025638E+00  0.112343328682423E+00  0.921413590423662E-02
  0.675337414025638E+00  0.224951994744527E+00  0.630230255634602E-02
  0.675337414025638E+00  0.337641464801303E+00  0.334321013482756E-02
  0.675337414025638E+00  0.449536557024029E+00  0.138557870531724E-02
  0.675337414025638E+00  0.560523029461074E+00  0.451621149961115E-03
  0.675337414025638E+00  0.675337414025638E+00  0.109278328737468E-03
  0.675337414025638E+00  0.798443291855323E+00  0.178069250082760E-04
  0.675337414025638E+00  0.904141431802467E+00  0.294464139744651E-05
  0.675337414025638E+00  0.975060457533844E+00  0.776681728527115E-06
  0.675337414025638E+00  0.100000000000000E+01  0.000000000000000E+00
  0.798443291855323E+00 -0.100000000000000E+01  0.000000000000000E+00
  0.798443291855323E+00 -0.975060457533844E+00  0.126560439338405E-06
  0.798443291855323E+00 -0.904141431802467E+00  0.479829890760555E-06
  0.798443291855323E+00 -0.798443291855323E+00  0.290164190753814E-05
  0.798443291855323E+00 -0.675337414025638E+00  0.178069250082760E-04
  0.798443291855323E+00 -0.560523029461074E+00  0.735917545813605E-04
  0.798443291855323E+00 -0.449536557024029E+00  0.225780320615289E-03
  0.798443291855323E+00 -0.337641464801303E+00  0.544776744351611E-03
  0.798443291855323E+00 -0.224951994744527E+00  0.102696143230677E-02
  0.798443291855323E+00 -0.112343328682423E+00  0.150144524498524E-02
  0.798443291855323E+00  0.414186545644071E-17  0.170342064902893E-02
  0.798443291855323E+00  0.112343328682423E+00  0.150144524498524E-02
  0.798443291855323E+00  0.224951994744527E+00  0.102696143230677E-02
  0.798443291855323E+00  0.337641464801303E+00  0.544776744351611E-03
  0.798443291855323E+00  0.449536557024029E+00  0.225780320615289E-03
  0.798443291855323E+00  0.560523029461074E+00  0.735917545813605E-04
  0.798443291855323E+00  0.675337414025638E+00  0.178069250082760E-04
  0.798443291855323E+00  0.798443291855323E+00  0.290164190753814E-05
  0.798443291855323E+00  0.904141431802467E+00  0.479829890760555E-06
  0.798443291855323E+00  0.975060457533844E+00  0.126560439338405E-06
  0.798443291855323E+00  0.100000000000000E+01  0.000000000000000E+00
  0.904141431802467E+00 -0.100000000000000E+01  0.000000000000000E+00
  0.904141431802467E+00 -0.975060457533844E+00  0.209286616741340E-07
  0.904141431802467E+00 -0.904141431802467E+00  0.793470494995117E-07
  0.904141431802467E+00 -0.798443291855323E+00  0.479829890760555E-06
  0.904141431802467E+00 -0.675337414025638E+00  0.294464139744651E-05
  0.904141431802467E+00 -0.560523029461074E+00  0.121694973697190E-04
  0.904141431802467E+00 -0.449536557024029E+00  0.373361531260187E-04
  0.904141431802467E+00 -0.337641464801303E+00  0.900869831842572E-04
  0.904141431802467E+00 -0.224951994744527E+00  0.169823433621808E-03
  0.904141431802467E+00 -0.112343328682423E+00  0.248286429146411E-03
  0.904141431802467E+00  0.414186545644071E-17  0.281686083254945E-03
  0.904141431802467E+00  0.112343328682423E+00  0.248286429146411E-03
  0.904141431802467E+00  0.224951994744527E+00  0.169823433621808E-03
  0.904141431802467E+00  0.337641464801303E+00  0.900869831842572E-04
  0.904141431802467E+00  0.449536557024029E+00  0.373361531260187E-04
  0.904141431802467E+00  0.560523029461074E+00  0.121694973697190E-04
  0.904141431802467E+00  0.675337414025638E+00  0.294464139744651E-05
  0.904141431802467E+00  0.798443291855323E+00  0.479829890760555E-06
  0.904141431802467E+00  0.904141431802467E+00  0.793470494995117E-07
  0.904141431802467E+00  0.975060457533844E+00  0.209286616741340E-07
  0.904141431802467E+00  0.100000000000000E+01  0.000000000000000E+00
  0.975060457533844E+00 -0.100000000000000E+01  0.000000000000000E+00
  0.975060457533844E+00 -0.975060457533844E+00  0.552016593223245E-08
  0.975060457533844E+00 -0.904141431802467E+00  0.209286616741340E-07
  0.975060457533844E+00 -0.798443291855323E+00  0.126560439338405E-06
  0.975060457533844E+00 -0.675337414025638E+00  0.776681728527115E-06
  0.975060457533844E+00 -0.560523029461074E+00  0.320983949373795E-05
  0.975060457533844E+00 -0.449536557024029E+00  0.984782322615431E-05
  0.975060457533844E+00 -0.337641464801303E+00  0.237614379387645E-04
  0.975060457533844E+00 -0.224951994744527E+00  0.447928084160515E-04
  0.975060457533844E+00 -0.112343328682423E+00  0.654882910790030E-04
  0.975060457533844E+00  0.414186545644071E-17  0.742978191620215E-04
  0.975060457533844E+00  0.112343328682423E+00  0.654882910790030E-04
  0.975060457533844E+00  0.224951994744527E+00  0.447928084160515E-04
  0.975060457533844E+00  0.337641464801303E+00  0.237614379387645E-04
  0.975060457533844E+00  0.449536557024029E+00  0.984782322615431E-05
  0.975060457533844E+00  0.560523029461074E+00  0.320983949373795E-05
  0.975060457533844E+00  0.675337414025638E+00  0.776681728527115E-06
  0.975060457533844E+00  0.798443291855323E+00  0.126560439338405E-06
  0.975060457533844E+00  0.904141431802467E+00  0.209286616741340E-07
  0.975060457533844E+00  0.975060457533844E+00  0.552016593223245E-08
  0.975060457533844E+00  0.100000000000000E+01  0.000000000000000E+00
  0.100000000000000E+01 -0.100000000000000E+01  0.000000000000000E+00
  0.100000000000000E+01 -0.975060457533844E+00  0.000000000000000E+00
  0.100000000000000E+01 -0.904141431802467E+00  0.000000000000000E+00
  0.100000000000000E+01 -0.798443291855323E+00  0.000000000000000E+00
  0.100000000000000E+01 -0.675337414025638E+00  0.000000000000000E+00
  0.100000000000000E+01 -0.560523029461074E+00  0.000000000000000E+00
  0.100000000000000E+01 -0.449536557024029E+00  0.000000000000000E+00