 VARIABLES =  $x$  t=   0.00  $x$2  t=   0.66  $x$3  t=   1.33  $x$4  t=   1.99
 ZONE I=          41 ,DATAPACKING=POINT
 -0.100000000000000E+01  0.000000000000000E+00 -0.100000000000000E+01  0.663999999999999E-34 -0.100000000000000E+01  0.132800000000001E-33 -0.100000000000000E+01  0.199200000000002E-33
 -0.978226538838537E+00  0.583683227864468E-06 -0.978226538838537E+00  0.403804008354314E-01 -0.978226538838537E+00 -0.427412508679416E-01 -0.978226538838537E+00 -0.535052214066831E-06
 -0.926206016243102E+00  0.257963209541891E-05 -0.926206016243102E+00  0.137941446241662E+00 -0.926206016243102E+00 -0.145505324442798E+00 -0.926206016243102E+00 -0.304136017854316E-05
 -0.874353623385414E+00  0.104656312799610E-04 -0.874353623385414E+00  0.236837540287509E+00 -0.874353623385414E+00 -0.248150429689600E+00 -0.874353623385414E+00 -0.115674366378794E-04
 -0.823044935991433E+00  0.386468804143830E-04 -0.823044935991433E+00  0.332167735672583E+00 -0.823044935991433E+00 -0.344800252908269E+00 -0.823044935991433E+00 -0.410144888648879E-04
 -0.771572727718090E+00  0.132375614442188E-03 -0.771572727718090E+00  0.415783142620059E+00 -0.771572727718090E+00 -0.426714960425364E+00 -0.771572727718090E+00 -0.137367154586117E-03
 -0.720143150808558E+00  0.418391749386653E-03 -0.720143150808558E+00  0.474984230243548E+00 -0.720143150808558E+00 -0.481317177214543E+00 -0.720143150808558E+00 -0.428611997519930E-03
 -0.668702063952709E+00  0.122179186617388E-02 -0.668702063952709E+00  0.499194354818700E+00 -0.668702063952709E+00 -0.499103428764462E+00 -0.668702063952709E+00 -0.124163709974380E-02
 -0.617264054974525E+00  0.329541324386699E-02 -0.617264054974525E+00  0.483891499571559E+00 -0.617264054974525E+00 -0.477284614584758E+00 -0.617264054974525E+00 -0.333148717724065E-02
 -0.565825220835437E+00  0.821024340971248E-02 -0.565825220835437E+00  0.432978720595605E+00 -0.565825220835437E+00 -0.421466931347708E+00 -0.565825220835437E+00 -0.827191438198996E-02
 -0.514386607765533E+00  0.188941347885235E-01 -0.514386607765533E+00  0.357696121748746E+00 -0.514386607765533E+00 -0.343883153887849E+00 -0.514386607765533E+00 -0.189948426392195E-01
 -0.462947935458022E+00  0.401628891912699E-01 -0.462947935458022E+00  0.272836774885796E+00 -0.462947935458022E+00 -0.259320904365535E+00 -0.462947935458022E+00 -0.403229470678667E-01
 -0.411509279023015E+00  0.788586475391001E-01 -0.411509279023015E+00  0.192150957619288E+00 -0.411509279023015E+00 -0.180745289164081E+00 -0.411509279023015E+00 -0.791063934201609E-01
 -0.360070618334971E+00  0.143021150677754E+00 -0.360070618334971E+00  0.124961213263027E+00 -0.360070618334971E+00 -0.116421389932340E+00 -0.360070618334971E+00 -0.143382821175185E+00
 -0.308631958786524E+00  0.239594997916962E+00 -0.308631958786524E+00  0.750580711048052E-01 -0.308631958786524E+00 -0.692732962651168E-01 -0.308631958786524E+00 -0.240063463350611E+00
 -0.257193298932723E+00  0.370750520060895E+00 -0.257193298932723E+00  0.416567851467289E-01 -0.257193298932723E+00 -0.380516387778712E-01 -0.257193298932723E+00 -0.371241430058943E+00
 -0.205754639160742E+00  0.529922466350284E+00 -0.205754639160742E+00  0.213786569392754E-01 -0.205754639160742E+00 -0.192770310640825E-01 -0.205754639160742E+00 -0.530255283777410E+00
 -0.154315979366837E+00  0.699631632092635E+00 -0.154315979366837E+00  0.101695632988904E-01 -0.154315979366837E+00 -0.900193145464575E-02 -0.154315979366837E+00 -0.699581103854496E+00
 -0.102877319578805E+00  0.853204393248300E+00 -0.102877319578805E+00  0.454017683227843E-02 -0.102877319578805E+00 -0.390182128337864E-02 -0.102877319578805E+00 -0.852624992914402E+00
 -0.514386597892067E-01  0.961088256716899E+00 -0.514386597892067E-01  0.206148172198169E-02 -0.514386597892067E-01 -0.168562600891060E-02 -0.514386597892067E-01 -0.960038303854423E+00
  0.102440335561230E-17  0.100000000000000E+01  0.102440335561230E-17  0.137765193162179E-02  0.102440335561230E-17 -0.108037285597748E-02  0.102440335561230E-17 -0.998760835038758E+00
  0.514386597892067E-01  0.961088256716899E+00  0.514386597892067E-01  0.206148172198039E-02  0.514386597892067E-01 -0.168562600891064E-02  0.514386597892067E-01 -0.960038303854419E+00
  0.102877319578805E+00  0.853204393248300E+00  0.102877319578805E+00  0.454017683227589E-02  0.102877319578805E+00 -0.390182128337922E-02  0.102877319578805E+00 -0.852624992914393E+00
  0.154315979366837E+00  0.699631632092635E+00  0.154315979366837E+00  0.101695632988861E-01  0.154315979366837E+00 -0.900193145464605E-02  0.154315979366837E+00 -0.699581103854484E+00
  0.205754639160742E+00  0.529922466350284E+00  0.205754639160742E+00  0.213786569392704E-01  0.205754639160742E+00 -0.192770310640833E-01  0.205754639160742E+00 -0.530255283777394E+00
  0.257193298932723E+00  0.370750520060895E+00  0.257193298932723E+00  0.416567851467227E-01  0.257193298932723E+00 -0.380516387778722E-01  0.257193298932723E+00 -0.371241430058926E+00
  0.308631958786524E+00  0.239594997916962E+00  0.308631958786524E+00  0.750580711047979E-01  0.308631958786524E+00 -0.692732962651181E-01  0.308631958786524E+00 -0.240063463350593E+00
  0.360070618334971E+00  0.143021150677754E+00  0.360070618334971E+00  0.124961213263019E+00  0.360070618334971E+00 -0.116421389932342E+00  0.360070618334971E+00 -0.143382821175167E+00
  0.411509279023015E+00  0.788586475391001E-01  0.411509279023015E+00  0.192150957619279E+00  0.411509279023015E+00 -0.180745289164083E+00  0.411509279023015E+00 -0.791063934201434E-01
  0.462947935458022E+00  0.401628891912699E-01  0.462947935458022E+00  0.272836774885787E+00  0.462947935458022E+00 -0.259320904365537E+00  0.462947935458022E+00 -0.403229470678495E-01
  0.514386607765533E+00  0.188941347885235E-01  0.514386607765533E+00  0.357696121748737E+00  0.514386607765533E+00 -0.343883153887851E+00  0.514386607765533E+00 -0.189948426392038E-01
  0.565825220835437E+00  0.821024340971248E-02  0.565825220835437E+00  0.432978720595597E+00  0.565825220835437E+00 -0.421466931347710E+00  0.565825220835437E+00 -0.827191438197513E-02
  0.617264054974525E+00  0.329541324386699E-02  0.617264054974525E+00  0.483891499571552E+00  0.617264054974525E+00 -0.477284614584759E+00  0.617264054974525E+00 -0.333148717722743E-02
  0.668702063952709E+00  0.122179186617388E-02  0.668702063952709E+00  0.499194354818694E+00  0.668702063952709E+00 -0.499103428764462E+00  0.668702063952709E+00 -0.124163709973206E-02
  0.720143150808558E+00  0.418391749386653E-03  0.720143150808558E+00  0.474984230243544E+00  0.720143150808558E+00 -0.481317177214543E+00  0.720143150808558E+00 -0.428611997509751E-03
  0.771572727718090E+00  0.132375614442188E-03  0.771572727718090E+00  0.415783142620057E+00  0.771572727718090E+00 -0.426714960425364E+00  0.771572727718090E+00 -0.137367154577291E-03
  0.823044935991433E+00  0.386468804143830E-04  0.823044935991433E+00  0.332167735672581E+00  0.823044935991433E+00 -0.344800252908269E+00  0.823044935991433E+00 -0.410144888582171E-04
  0.874353623385414E+00  0.104656312799610E-04  0.874353623385414E+00  0.236837540287508E+00  0.874353623385414E+00 -0.248150429689599E+00  0.874353623385414E+00 -0.115674366328493E-04
  0.926206016243102E+00  0.257963209541891E-05  0.926206016243102E+00  0.137941446241661E+00  0.926206016243102E+00 -0.145505324442798E+00  0.926206016243102E+00 -0.304136017547988E-05
  0.978226538838537E+00  0.583683227864468E-06  0.978226538838537E+00  0.403804008354313E-01  0.978226538838537E+00 -0.427412508679416E-01  0.978226538838537E+00 -0.535052213234345E-06
  0.100000000000000E+01  0.000000000000000E+00  0.100000000000000E+01  0.663999999999999E-34  0.100000000000000E+01  0.132800000000001E-33  0.100000000000000E+01  0.199200000000002E-33
