 VARIABLES = "X", "t = 0.000", "t = 1.125", "t = 2.000", "t = 4.000" 
 ZONE I=          41 ,DATAPACKING=POINT
  -1.00000000000000       1.298343664067874E-004 -0.102505665831291     
  1.144900047951854E-002 -1.894318747660205E-003
 -0.978226538838537      -6.180316472513005E-005   1.02993518313674     
 -4.962656457112930E-002 -8.815967203192616E-004
 -0.926206016243102       3.410262015679538E-003   3.36380081086279     
 -0.137274150197065      -3.190269561021069E-003
 -0.874353623385414       1.149765404365550E-002   5.20827142853648     
 -0.141989822005519      -1.130536552953234E-002
 -0.823044935991433       3.453926686270548E-002   6.04266984006987     
 -7.402934455214984E-002 -3.462511672907820E-002
 -0.771572727718090       9.705720476539492E-002   5.30220798373762     
  1.546097816122435E-002 -9.715267602192784E-002
 -0.720143150808558       0.248839213630869        2.61415541931293     
  7.262735806924246E-002 -0.249293745927301     
 -0.668702063952709       0.584852857598636       -1.82857665149970     
  7.795887361703130E-002 -0.585194253779037     
 -0.617264054974525        1.25484574896180       -7.08330876182706     
  4.655339096090860E-002  -1.25495524048340     
 -0.565825220835437        2.45101229944185       -11.6509907658950     
  8.632038461838843E-003  -2.44996643160213     
 -0.514386607765533        4.33711821437690       -14.0267576331702     
 -1.552134867863213E-002  -4.33506312257441     
 -0.462947935458022        6.90421892685093       -13.3683051944588     
 -2.130557793780120E-002  -6.90264113244673     
 -0.411509279023015        9.77652937519799       -9.90037937919003     
 -1.566464483081667E-002  -9.77793491726083     
 -0.360070618334971        12.0726730743018       -4.80767069894082     
 -7.504839814309447E-003  -12.0775563953241     
 -0.308631958786524        12.4843065106416       0.323597128380660     
 -1.354339419124542E-003  -12.4895069491795     
 -0.257193298932723        9.69709277383881        4.18969886408903     
  1.391105467147623E-003  -9.69735502744710     
 -0.205754639160742        3.09355906192344        6.21687845802836     
  1.765443526927306E-003  -3.08614898026716     
 -0.154315979366837       -6.58385498283791        6.60250159350363     
  1.382723128755680E-003   6.59376135715089     
 -0.102877319578805       -17.0736274821837        6.03335533011844     
  8.942924935205263E-004   17.0772947955218     
 -5.143865978920674E-002  -25.2352849095090        5.29918022521809     
  4.539331235720331E-004   25.2284051549308     
 -7.103201203645118E-019  -28.3199933984230        4.98413509757482     
  2.692182025642907E-004   28.3077315184900     
  5.143865978920673E-002  -25.2352849095093        5.29918022521818     
  4.539331237661753E-004   25.2284051549310     
  0.102877319578805       -17.0736274821834        6.03335533011870     
  8.942924931500261E-004   17.0772947955210     
  0.154315979366837       -6.58385498283841        6.60250159350287     
  1.382723129449786E-003   6.59376135715104     
  0.205754639160742        3.09355906192347        6.21687845802886     
  1.765443526507225E-003  -3.08614898026785     
  0.257193298932723        9.69709277383872        4.18969886408915     
  1.391105467209851E-003  -9.69735502744813     
  0.308631958786524        12.4843065106414       0.323597128380660     
 -1.354339419131941E-003  -12.4895069491792     
  0.360070618334971        12.0726730743020       -4.80767069894032     
 -7.504839814267594E-003  -12.0775563953236     
  0.411509279023015        9.77652937519769       -9.90037937919033     
 -1.566464483072176E-002  -9.77793491726148     
  0.462947935458022        6.90421892685100       -13.3683051944590     
 -2.130557793793857E-002  -6.90264113244659     
  0.514386607765533        4.33711821437690       -14.0267576331697     
 -1.552134867849506E-002  -4.33506312257478     
  0.565825220835437        2.45101229944184       -11.6509907658952     
  8.632038462007509E-003  -2.44996643160199     
  0.617264054974525        1.25484574896182       -7.08330876182725     
  4.655339096091887E-002  -1.25495524048345     
  0.668702063952709       0.584852857598626       -1.82857665149991     
  7.795887361720533E-002 -0.585194253778864     
  0.720143150808558       0.248839213630872        2.61415541931281     
  7.262735806886998E-002 -0.249293745927525     
  0.771572727718090       9.705720476539484E-002   5.30220798373762     
  1.546097816190429E-002 -9.715267602168914E-002
  0.823044935991433       3.453926686270545E-002   6.04266984006984     
 -7.402934455174910E-002 -3.462511672930294E-002
  0.874353623385414       1.149765404365554E-002   5.20827142853643     
 -0.141989822005412      -1.130536552984583E-002
  0.926206016243102       3.410262015679500E-003   3.36380081086275     
 -0.137274150197002      -3.190269560874603E-003
  0.978226538838537      -6.180316472510381E-005   1.02993518313672     
 -4.962656457091075E-002 -8.815967203745164E-004
   1.00000000000000       1.298343664068863E-004 -0.102505665831224     
  1.144900047986308E-002 -1.894318747972297E-003
