 VARIABLES = "X", "U0", "U1", "U2", "U3" 
 ZONE I=          31 ,DATAPACKING=POINT
  -1.00000000000000       0.000000000000000E+000  0.000000000000000E+000
  0.000000000000000E+000  1.305449081961484E-006
 -0.970687581129010       2.114553948703151E-006 -8.116344082668717E-002
 -2.102570487126741E-004  1.359101792887524E-002
 -0.900655199189473       1.279230593413639E-005 -0.246965975090597     
 -1.229110198055353E-003  5.259748626276865E-002
 -0.830849161112357       6.772873649085378E-005 -0.336047988411053     
 -4.509834846343840E-003  0.110569583668094     
 -0.761775083938307       3.138276316198623E-004 -0.337846815398385     
 -1.335443270354289E-002  0.192982482762016     
 -0.692480867555589       1.272633801339806E-003 -0.277087987873581     
 -3.367837525660652E-002  0.295615761553565     
 -0.623244043444308       4.516580942612671E-003 -0.192108110185149     
 -7.332156454946405E-002  0.399352659591490     
 -0.553991724122361       1.402846686013511E-002 -0.114405683703422     
 -0.139307414284833       0.475881300787381     
 -0.484743548378627       3.813332654704520E-002 -5.895913972619846E-002
 -0.232201042064303       0.498777517204585     
 -0.415494261765948       9.071795328941246E-002 -2.634183902959430E-002
 -0.340581996060659       0.457787403153751     
 -0.346245272766571       0.188875602837562      -1.017428301585298E-002
 -0.440500939786140       0.365925477642127     
 -0.276996204018997       0.344153786865412      -3.369493842871221E-003
 -0.504153302405054       0.253417723848446     
 -0.207747156639139       0.548811636094027      -9.400814277329167E-004
 -0.515607697136620       0.151946221401564     
 -0.138498103535769       0.765928338364649      -2.121166265902143E-004
 -0.483635484467204       8.040567681770464E-002
 -6.924905195866818E-002  0.935506985031618      -3.400131391368933E-005
 -0.439927152278692       4.158112672913770E-002
 -1.130453260543423E-018   1.00000000000000      -4.505616893148052E-006
 -0.420171720117407       2.979917227959288E-002
  6.924905195866818E-002  0.935506985031618      -3.400131391350732E-005
 -0.439927152278693       4.158112672913778E-002
  0.138498103535769       0.765928338364649      -2.121166265895221E-004
 -0.483635484467206       8.040567681770495E-002
  0.207747156639139       0.548811636094027      -9.400814277320794E-004
 -0.515607697136622       0.151946221401566     
  0.276996204018997       0.344153786865413      -3.369493842870014E-003
 -0.504153302405058       0.253417723848447     
  0.346245272766571       0.188875602837562      -1.017428301585161E-002
 -0.440500939786145       0.365925477642128     
  0.415494261765948       9.071795328941264E-002 -2.634183902959272E-002
 -0.340581996060662       0.457787403153752     
  0.484743548378627       3.813332654704524E-002 -5.895913972619667E-002
 -0.232201042064307       0.498777517204586     
  0.553991724122361       1.402846686013509E-002 -0.114405683703420     
 -0.139307414284837       0.475881300787383     
  0.623244043444308       4.516580942612659E-003 -0.192108110185147     
 -7.332156454946764E-002  0.399352659591492     
  0.692480867555589       1.272633801339806E-003 -0.277087987873580     
 -3.367837525660976E-002  0.295615761553565     
  0.761775083938307       3.138276316198623E-004 -0.337846815398383     
 -1.335443270354579E-002  0.192982482762016     
  0.830849161112357       6.772873649085378E-005 -0.336047988411051     
 -4.509834846345851E-003  0.110569583668094     
  0.900655199189473       1.279230593413639E-005 -0.246965975090596     
 -1.229110198056557E-003  5.259748626276901E-002
  0.970687581129010       2.114553948703151E-006 -8.116344082668729E-002
 -2.102570487132533E-004  1.359101792887569E-002
   1.00000000000000       0.000000000000000E+000  0.000000000000000E+000
  0.000000000000000E+000  1.305449081960306E-006
