 VARIABLES = "X", "Y", "U0", "U1", "U2", "U3" 
 ZONE I=          21 , J=          21 ,DATAPACKING=POINT
  -1.00000000000000       -1.00000000000000       9.357622968840175E-014
  9.357622968840175E-014  9.357622968840175E-014  9.357622968840175E-014
  -1.00000000000000      -0.968133451622095       0.000000000000000E+000
  0.000000000000000E+000  0.000000000000000E+000  0.000000000000000E+000
  -1.00000000000000      -0.881334751433768       0.000000000000000E+000
  0.000000000000000E+000  0.000000000000000E+000  0.000000000000000E+000
  -1.00000000000000      -0.764271786586648       0.000000000000000E+000
  0.000000000000000E+000  0.000000000000000E+000  0.000000000000000E+000
  -1.00000000000000      -0.653642386938342       0.000000000000000E+000
  0.000000000000000E+000  0.000000000000000E+000  0.000000000000000E+000
  -1.00000000000000      -0.545511771864039       0.000000000000000E+000
  0.000000000000000E+000  0.000000000000000E+000  0.000000000000000E+000
  -1.00000000000000      -0.436369536137632       0.000000000000000E+000
  0.000000000000000E+000  0.000000000000000E+000  0.000000000000000E+000
  -1.00000000000000      -0.327180849161556       0.000000000000000E+000
  0.000000000000000E+000  0.000000000000000E+000  0.000000000000000E+000
  -1.00000000000000      -0.218154949867251       0.000000000000000E+000
  0.000000000000000E+000  0.000000000000000E+000  0.000000000000000E+000
  -1.00000000000000      -0.109079894803258       0.000000000000000E+000
  0.000000000000000E+000  0.000000000000000E+000  0.000000000000000E+000
  -1.00000000000000       6.199650627245017E-018  0.000000000000000E+000
  0.000000000000000E+000  0.000000000000000E+000  0.000000000000000E+000
  -1.00000000000000       0.109079894803258       0.000000000000000E+000
  0.000000000000000E+000  0.000000000000000E+000  0.000000000000000E+000
  -1.00000000000000       0.218154949867251       0.000000000000000E+000
  0.000000000000000E+000  0.000000000000000E+000  0.000000000000000E+000
  -1.00000000000000       0.327180849161556       0.000000000000000E+000
  0.000000000000000E+000  0.000000000000000E+000  0.000000000000000E+000
  -1.00000000000000       0.436369536137632       0.000000000000000E+000
  0.000000000000000E+000  0.000000000000000E+000  0.000000000000000E+000
  -1.00000000000000       0.545511771864039       0.000000000000000E+000
  0.000000000000000E+000  0.000000000000000E+000  0.000000000000000E+000
  -1.00000000000000       0.653642386938342       0.000000000000000E+000
  0.000000000000000E+000  0.000000000000000E+000  0.000000000000000E+000
  -1.00000000000000       0.764271786586648       0.000000000000000E+000
  0.000000000000000E+000  0.000000000000000E+000  0.000000000000000E+000
  -1.00000000000000       0.881334751433768       0.000000000000000E+000
  0.000000000000000E+000  0.000000000000000E+000  0.000000000000000E+000
  -1.00000000000000       0.968133451622095       0.000000000000000E+000
  0.000000000000000E+000  0.000000000000000E+000  0.000000000000000E+000
  -1.00000000000000        1.00000000000000       9.357622968840175E-014
  9.357622968840175E-014  9.357622968840175E-014  9.357622968840175E-014
 -0.968133451622095       -1.00000000000000       0.000000000000000E+000
  0.000000000000000E+000  0.000000000000000E+000  0.000000000000000E+000
 -0.968133451622095      -0.968133451622095       2.796688455926927E-011
  2.038141347331416E-003 -2.490278419922705E-004  5.093751403251525E-003
 -0.968133451622095      -0.881334751433768       3.581747930283168E-010
  5.538349294455754E-003 -9.931076140828117E-004  1.760116773763044E-002
 -0.968133451622095      -0.764271786586648       3.398267819495071E-009
  8.233260697727224E-004 -2.371804303332769E-003  2.698345995004549E-002
 -0.968133451622095      -0.653642386938342       2.388536281840133E-008
 -1.341335577149125E-002 -4.360543723141552E-003  2.462937001233617E-002
 -0.968133451622095      -0.545511771864039       1.243706023602870E-007
 -3.023424202176975E-002 -6.853839690949885E-003  1.351675902882574E-002
 -0.968133451622095      -0.436369536137632       4.797503368127321E-007
 -4.389343369593264E-002 -8.215713915031871E-003  4.406238807422828E-005
 -0.968133451622095      -0.327180849161556       1.370959086384082E-006
 -5.182292360212628E-002 -4.457299471993613E-003 -8.099489826214775E-003
 -0.968133451622095      -0.218154949867251       2.902320408650399E-006
 -5.501702075284375E-002  6.883424533723213E-003 -7.338938128587626E-003
 -0.968133451622095      -0.109079894803258       4.551744463083230E-006
 -5.572279616848278E-002  2.104267732824478E-002 -1.257117486586458E-003
 -0.968133451622095       6.199650627245017E-018  5.288372581358964E-006
 -5.573993466189995E-002  2.762388544938164E-002  2.195931392570855E-003
 -0.968133451622095       0.109079894803258       4.551744463083230E-006
 -5.572279616848266E-002  2.104267732824475E-002 -1.257117486586471E-003
 -0.968133451622095       0.218154949867251       2.902320408650399E-006
 -5.501702075284355E-002  6.883424533723139E-003 -7.338938128587819E-003
 -0.968133451622095       0.327180849161556       1.370959086384082E-006
 -5.182292360212618E-002 -4.457299471993616E-003 -8.099489826214862E-003
 -0.968133451622095       0.436369536137632       4.797503368127330E-007
 -4.389343369593256E-002 -8.215713915031914E-003  4.406238807397312E-005
 -0.968133451622095       0.545511771864039       1.243706023602870E-007
 -3.023424202176979E-002 -6.853839690949926E-003  1.351675902882571E-002
 -0.968133451622095       0.653642386938342       2.388536281840125E-008
 -1.341335577149133E-002 -4.360543723141611E-003  2.462937001233614E-002
 -0.968133451622095       0.764271786586648       3.398267819495071E-009
  8.233260697726879E-004 -2.371804303332837E-003  2.698345995004565E-002
 -0.968133451622095       0.881334751433768       3.581747930283168E-010
  5.538349294455805E-003 -9.931076140827365E-004  1.760116773763041E-002
 -0.968133451622095       0.968133451622095       2.796688455926937E-011
  2.038141347331439E-003 -2.490278419922984E-004  5.093751403251473E-003
 -0.968133451622095        1.00000000000000       0.000000000000000E+000
  0.000000000000000E+000  0.000000000000000E+000  0.000000000000000E+000
 -0.881334751433768       -1.00000000000000       0.000000000000000E+000
  0.000000000000000E+000  0.000000000000000E+000  0.000000000000000E+000
 -0.881334751433768      -0.968133451622095       3.581747930283168E-010
  5.538349294455754E-003 -9.931076140828117E-004  1.760116773763044E-002
 -0.881334751433768      -0.881334751433768       4.587181746647508E-009
  1.421585232624857E-002 -3.918765564353020E-003  6.103911399454905E-002
 -0.881334751433768      -0.764271786586648       4.352196864555725E-008
 -3.319961498302141E-003 -9.121383709471444E-003  9.473502852786349E-002
 -0.881334751433768      -0.653642386938342       3.059023205018258E-007
 -4.959117815659445E-002 -1.626265685755778E-002  8.852186897539677E-002
 -0.881334751433768      -0.545511771864039       1.592827211940510E-006
 -0.102769160077637      -2.475555974034750E-002  5.131138989282415E-002
 -0.881334751433768      -0.436369536137632       6.144212353328198E-006
 -0.145350496908932      -2.872602838318467E-002  4.205021851888508E-003
 -0.881334751433768      -0.327180849161556       1.755801530110581E-005
 -0.169936204985103      -1.459286433402849E-002 -2.564747562002782E-002
 -0.881334751433768      -0.218154949867251       3.717031868412661E-005
 -0.179932945600511       2.563835260895266E-002 -2.420851210248375E-002
 -0.881334751433768      -0.109079894803258       5.829466373086871E-005
 -0.182283673592477       7.518793418113866E-002 -3.181361959719510E-003
 -0.881334751433768       6.199650627245017E-018  6.772873649085378E-005
 -0.182416815264707       9.812337958738403E-002  9.010900059893825E-003
 -0.881334751433768       0.109079894803258       5.829466373086871E-005
 -0.182283673592477       7.518793418113875E-002 -3.181361959719586E-003
 -0.881334751433768       0.218154949867251       3.717031868412661E-005
 -0.179932945600510       2.563835260895265E-002 -2.420851210248384E-002
 -0.881334751433768       0.327180849161556       1.755801530110581E-005
 -0.169936204985103      -1.459286433402853E-002 -2.564747562002814E-002
 -0.881334751433768       0.436369536137632       6.144212353328209E-006
 -0.145350496908931      -2.872602838318478E-002  4.205021851887873E-003
 -0.881334751433768       0.545511771864039       1.592827211940510E-006
 -0.102769160077637      -2.475555974034772E-002  5.131138989282382E-002
 -0.881334751433768       0.653642386938342       3.059023205018247E-007
 -4.959117815659474E-002 -1.626265685755758E-002  8.852186897539632E-002
 -0.881334751433768       0.764271786586648       4.352196864555725E-008
 -3.319961498302271E-003 -9.121383709471584E-003  9.473502852786379E-002
 -0.881334751433768       0.881334751433768       4.587181746647508E-009
  1.421585232624867E-002 -3.918765564352779E-003  6.103911399454925E-002
 -0.881334751433768       0.968133451622095       3.581747930283180E-010
  5.538349294455804E-003 -9.931076140827723E-004  1.760116773763037E-002
 -0.881334751433768        1.00000000000000       0.000000000000000E+000
  0.000000000000000E+000  0.000000000000000E+000  0.000000000000000E+000
 -0.764271786586648       -1.00000000000000       0.000000000000000E+000
  0.000000000000000E+000  0.000000000000000E+000  0.000000000000000E+000
 -0.764271786586648      -0.968133451622095       3.398267819495071E-009
  8.233260697727224E-004 -2.371804303332769E-003  2.698345995004549E-002
 -0.764271786586648      -0.881334751433768       4.352196864555725E-008
 -3.319961498302141E-003 -9.121383709471444E-003  9.473502852786349E-002
 -0.764271786586648      -0.764271786586648       4.129249415873279E-007
 -3.721488040155422E-002 -1.981160491258157E-002  0.153079808338053     
 -0.764271786586648      -0.653642386938342       2.902320408650410E-006
 -9.571534118852097E-002 -3.228595439764174E-002  0.153433237249808     
 -0.764271786586648      -0.545511771864039       1.511232381985503E-005
 -0.156297270807841      -4.460127034011054E-002  0.102061944454219     
 -0.764271786586648      -0.436369536137632       5.829466373086891E-005
 -0.202581159737992      -4.692499726970553E-002  2.603455277068264E-002
 -0.764271786586648      -0.327180849161556       1.665858109876335E-004
 -0.228934671677372      -1.936003485945122E-002 -2.963850209619068E-002
 -0.764271786586648      -0.218154949867251       3.526621646282564E-004
 -0.240047130217114       4.837832033197344E-002 -3.407121245884089E-002
 -0.764271786586648      -0.109079894803258       5.530843701478340E-004
 -0.243190574605536       0.128901564849853      -1.566485219925223E-003
 -0.764271786586648       6.199650627245017E-018  6.425923603555585E-004
 -0.243633532628378       0.165802809761668       1.870536352748756E-002
 -0.764271786586648       0.109079894803258       5.530843701478340E-004
 -0.243190574605536       0.128901564849853      -1.566485219925581E-003
 -0.764271786586648       0.218154949867251       3.526621646282564E-004
 -0.240047130217114       4.837832033197344E-002 -3.407121245884124E-002
 -0.764271786586648       0.327180849161556       1.665858109876335E-004
 -0.228934671677372      -1.936003485945146E-002 -2.963850209619106E-002
 -0.764271786586648       0.436369536137632       5.829466373086891E-005
 -0.202581159737992      -4.692499726970604E-002  2.603455277068167E-002
 -0.764271786586648       0.545511771864039       1.511232381985503E-005
 -0.156297270807841      -4.460127034011092E-002  0.102061944454219     
 -0.764271786586648       0.653642386938342       2.902320408650399E-006
 -9.571534118852126E-002 -3.228595439764171E-002  0.153433237249807     
 -0.764271786586648       0.764271786586648       4.129249415873279E-007
 -3.721488040155439E-002 -1.981160491258165E-002  0.153079808338053     
 -0.764271786586648       0.881334751433768       4.352196864555725E-008
 -3.319961498302189E-003 -9.121383709471529E-003  9.473502852786356E-002
 -0.764271786586648       0.968133451622095       3.398267819495083E-009
  8.233260697727215E-004 -2.371804303332752E-003  2.698345995004545E-002
 -0.764271786586648        1.00000000000000       0.000000000000000E+000
  0.000000000000000E+000  0.000000000000000E+000  0.000000000000000E+000
 -0.653642386938342       -1.00000000000000       0.000000000000000E+000
  0.000000000000000E+000  0.000000000000000E+000  0.000000000000000E+000
 -0.653642386938342      -0.968133451622095       2.388536281840133E-008
 -1.341335577149125E-002 -4.360543723141552E-003  2.462937001233617E-002
 -0.653642386938342      -0.881334751433768       3.059023205018258E-007
 -4.959117815659445E-002 -1.626265685755778E-002  8.852186897539677E-002
 -0.653642386938342      -0.764271786586648       2.902320408650410E-006
 -9.571534118852097E-002 -3.228595439764174E-002  0.153433237249808     
 -0.653642386938342      -0.653642386938342       2.039950341117196E-005
 -0.133187205012623      -4.656182716282435E-002  0.170299804120439     
 -0.653642386938342      -0.545511771864039       1.062198027464587E-004
 -0.161252669710450      -5.636479135525843E-002  0.131204189108074     
 -0.653642386938342      -0.436369536137632       4.097349789797864E-004
 -0.180159064346493      -5.234704432415119E-002  5.146206942355682E-002
 -0.653642386938342      -0.327180849161556       1.170879620791174E-003
 -0.190868452536791      -1.713420673592268E-002 -2.066304323256381E-002
 -0.653642386938342      -0.218154949867251       2.478752176666361E-003
 -0.195938367892819       5.765790262473234E-002 -3.845303011704523E-002
 -0.653642386938342      -0.109079894803258       3.887457243476130E-003
 -0.197927046757896       0.143818502251058      -8.048175457965949E-003
 -0.653642386938342       6.199650627245017E-018  4.516580942612671E-003
 -0.198430942402188       0.183079476361383       1.382252016654089E-002
 -0.653642386938342       0.109079894803258       3.887457243476130E-003
 -0.197927046757896       0.143818502251058      -8.048175457966400E-003
 -0.653642386938342       0.218154949867251       2.478752176666361E-003
 -0.195938367892819       5.765790262473217E-002 -3.845303011704598E-002
 -0.653642386938342       0.327180849161556       1.170879620791174E-003
 -0.190868452536790      -1.713420673592295E-002 -2.066304323256430E-002
 -0.653642386938342       0.436369536137632       4.097349789797871E-004
 -0.180159064346493      -5.234704432415164E-002  5.146206942355569E-002
 -0.653642386938342       0.545511771864039       1.062198027464587E-004
 -0.161252669710450      -5.636479135525892E-002  0.131204189108073     
 -0.653642386938342       0.653642386938342       2.039950341117192E-005
 -0.133187205012623      -4.656182716282490E-002  0.170299804120438     
 -0.653642386938342       0.764271786586648       2.902320408650410E-006
 -9.571534118852110E-002 -3.228595439764170E-002  0.153433237249808     
 -0.653642386938342       0.881334751433768       3.059023205018258E-007
 -4.959117815659458E-002 -1.626265685755754E-002  8.852186897539657E-002
 -0.653642386938342       0.968133451622095       2.388536281840133E-008
 -1.341335577149128E-002 -4.360543723141671E-003  2.462937001233625E-002
 -0.653642386938342        1.00000000000000       0.000000000000000E+000
  0.000000000000000E+000  0.000000000000000E+000  0.000000000000000E+000
 -0.545511771864039       -1.00000000000000       0.000000000000000E+000
  0.000000000000000E+000  0.000000000000000E+000  0.000000000000000E+000
 -0.545511771864039      -0.968133451622095       1.243706023602870E-007
 -3.023424202176975E-002 -6.853839690949885E-003  1.351675902882574E-002
 -0.545511771864039      -0.881334751433768       1.592827211940510E-006
 -0.102769160077637      -2.475555974034750E-002  5.131138989282415E-002
 -0.545511771864039      -0.764271786586648       1.511232381985503E-005
 -0.156297270807841      -4.460127034011054E-002  0.102061944454219     
 -0.545511771864039      -0.653642386938342       1.062198027464587E-004
 -0.161252669710450      -5.636479135525843E-002  0.131204189108074     
 -0.545511771864039      -0.545511771864039       5.530843701478335E-004
 -0.147878088391732      -5.981943811295533E-002  0.114727068085808     
 -0.545511771864039      -0.436369536137632       2.133481770037708E-003
 -0.135416443116306      -5.117482367771625E-002  4.816511955358505E-002
 -0.545511771864039      -0.327180849161556       6.096746565515633E-003
 -0.129087348176067      -1.922169650448369E-002 -2.962386037227974E-002
 -0.545511771864039      -0.218154949867251       1.290681258047987E-002
 -0.127025867886567       4.451652994601703E-002 -6.354327432425730E-002
 -0.545511771864039      -0.109079894803258       2.024191144580438E-002
 -0.126766276025048       0.118965318942756      -4.633704404380232E-002
 -0.545511771864039       6.199650627245017E-018  2.351774585600911E-002
 -0.126841169525510       0.153412978697491      -2.897102932276375E-002
 -0.545511771864039       0.109079894803258       2.024191144580438E-002
 -0.126766276025048       0.118965318942756      -4.633704404380294E-002
 -0.545511771864039       0.218154949867251       1.290681258047987E-002
 -0.127025867886566       4.451652994601698E-002 -6.354327432425785E-002
 -0.545511771864039       0.327180849161556       6.096746565515633E-003
 -0.129087348176067      -1.922169650448388E-002 -2.962386037228028E-002
 -0.545511771864039       0.436369536137632       2.133481770037712E-003
 -0.135416443116306      -5.117482367771636E-002  4.816511955358426E-002
 -0.545511771864039       0.545511771864039       5.530843701478335E-004
 -0.147878088391732      -5.981943811295576E-002  0.114727068085807     
 -0.545511771864039       0.653642386938342       1.062198027464586E-004
 -0.161252669710450      -5.636479135525874E-002  0.131204189108074     
 -0.545511771864039       0.764271786586648       1.511232381985503E-005
 -0.156297270807841      -4.460127034011088E-002  0.102061944454219     
 -0.545511771864039       0.881334751433768       1.592827211940510E-006
 -0.102769160077637      -2.475555974034763E-002  5.131138989282405E-002
 -0.545511771864039       0.968133451622095       1.243706023602874E-007
 -3.023424202176973E-002 -6.853839690949927E-003  1.351675902882574E-002
 -0.545511771864039        1.00000000000000       0.000000000000000E+000
  0.000000000000000E+000  0.000000000000000E+000  0.000000000000000E+000
 -0.436369536137632       -1.00000000000000       0.000000000000000E+000
  0.000000000000000E+000  0.000000000000000E+000  0.000000000000000E+000
 -0.436369536137632      -0.968133451622095       4.797503368127321E-007
 -4.389343369593264E-002 -8.215713915031871E-003  4.406238807422828E-005
 -0.436369536137632      -0.881334751433768       6.144212353328198E-006
 -0.145350496908932      -2.872602838318467E-002  4.205021851888508E-003
 -0.436369536137632      -0.764271786586648       5.829466373086891E-005
 -0.202581159737992      -4.692499726970553E-002  2.603455277068264E-002
 -0.436369536137632      -0.653642386938342       4.097349789797864E-004
 -0.180159064346493      -5.234704432415119E-002  5.146206942355682E-002
 -0.436369536137632      -0.545511771864039       2.133481770037708E-003
 -0.135416443116306      -5.117482367771625E-002  4.816511955358505E-002
 -0.436369536137632      -0.436369536137632       8.229747049020023E-003
 -0.101374046405460      -4.665201960610975E-002 -3.660846098236374E-003
 -0.436369536137632      -0.327180849161556       2.351774585600909E-002
 -8.408374244033900E-002 -2.975081105681718E-002 -8.020040114902095E-002
 -0.436369536137632      -0.218154949867251       4.978706836786394E-002
 -7.720916187013135E-002  1.383031433815906E-002 -0.129049853898812     
 -0.436369536137632      -0.109079894803258       7.808166600115310E-002
 -7.496345750464660E-002  7.220247073802041E-002 -0.131588226153890     
 -0.436369536137632       6.199650627245017E-018  9.071795328941246E-002
 -7.446422643894095E-002  0.100761916217233      -0.123186699276064     
 -0.436369536137632       0.109079894803258       7.808166600115310E-002
 -7.496345750464661E-002  7.220247073802089E-002 -0.131588226153890     
 -0.436369536137632       0.218154949867251       4.978706836786394E-002
 -7.720916187013112E-002  1.383031433815917E-002 -0.129049853898812     
 -0.436369536137632       0.327180849161556       2.351774585600909E-002
 -8.408374244033880E-002 -2.975081105681757E-002 -8.020040114902102E-002
 -0.436369536137632       0.436369536137632       8.229747049020037E-003
 -0.101374046405459      -4.665201960611005E-002 -3.660846098236839E-003
 -0.436369536137632       0.545511771864039       2.133481770037708E-003
 -0.135416443116305      -5.117482367771623E-002  4.816511955358467E-002
 -0.436369536137632       0.653642386938342       4.097349789797860E-004
 -0.180159064346493      -5.234704432415136E-002  5.146206942355631E-002
 -0.436369536137632       0.764271786586648       5.829466373086891E-005
 -0.202581159737992      -4.692499726970575E-002  2.603455277068206E-002
 -0.436369536137632       0.881334751433768       6.144212353328198E-006
 -0.145350496908932      -2.872602838318485E-002  4.205021851888185E-003
 -0.436369536137632       0.968133451622095       4.797503368127338E-007
 -4.389343369593255E-002 -8.215713915032022E-003  4.406238807419126E-005
 -0.436369536137632        1.00000000000000       0.000000000000000E+000
  0.000000000000000E+000  0.000000000000000E+000  0.000000000000000E+000
 -0.327180849161556       -1.00000000000000       0.000000000000000E+000
  0.000000000000000E+000  0.000000000000000E+000  0.000000000000000E+000
 -0.327180849161556      -0.968133451622095       1.370959086384082E-006
 -5.182292360212628E-002 -4.457299471993613E-003 -8.099489826214775E-003
 -0.327180849161556      -0.881334751433768       1.755801530110581E-005
 -0.169936204985103      -1.459286433402849E-002 -2.564747562002782E-002
 -0.327180849161556      -0.764271786586648       1.665858109876335E-004
 -0.228934671677372      -1.936003485945122E-002 -2.963850209619068E-002
 -0.327180849161556      -0.653642386938342       1.170879620791174E-003
 -0.190868452536791      -1.713420673592268E-002 -2.066304323256381E-002
 -0.327180849161556      -0.545511771864039       6.096746565515633E-003
 -0.129087348176067      -1.922169650448369E-002 -2.962386037227974E-002
 -0.327180849161556      -0.436369536137632       2.351774585600909E-002
 -8.408374244033900E-002 -2.975081105681718E-002 -8.020040114902095E-002
 -0.327180849161556      -0.327180849161556       6.720551273974973E-002
 -6.173808917629246E-002 -3.304025469198775E-002 -0.159661986986272     
 -0.327180849161556      -0.218154949867251       0.142274071586514     
 -5.279914010418586E-002 -5.781047885440550E-003 -0.225159120359352     
 -0.327180849161556      -0.109079894803258       0.223130160148430     
 -4.963662779954267E-002  4.409826314621128E-002 -0.251974416592980     
 -0.327180849161556       6.199650627245017E-018  0.259240260645891     
 -4.881598255228908E-002  7.040364730735149E-002 -0.255512221715299     
 -0.327180849161556       0.109079894803258       0.223130160148430     
 -4.963662779954260E-002  4.409826314621158E-002 -0.251974416592981     
 -0.327180849161556       0.218154949867251       0.142274071586514     
 -5.279914010418569E-002 -5.781047885440658E-003 -0.225159120359352     
 -0.327180849161556       0.327180849161556       6.720551273974973E-002
 -6.173808917629219E-002 -3.304025469198780E-002 -0.159661986986272     
 -0.327180849161556       0.436369536137632       2.351774585600913E-002
 -8.408374244033875E-002 -2.975081105681740E-002 -8.020040114902109E-002
 -0.327180849161556       0.545511771864039       6.096746565515633E-003
 -0.129087348176067      -1.922169650448400E-002 -2.962386037227991E-002
 -0.327180849161556       0.653642386938342       1.170879620791172E-003
 -0.190868452536790      -1.713420673592252E-002 -2.066304323256408E-002
 -0.327180849161556       0.764271786586648       1.665858109876335E-004
 -0.228934671677373      -1.936003485945134E-002 -2.963850209619108E-002
 -0.327180849161556       0.881334751433768       1.755801530110581E-005
 -0.169936204985103      -1.459286433402848E-002 -2.564747562002803E-002
 -0.327180849161556       0.968133451622095       1.370959086384087E-006
 -5.182292360212624E-002 -4.457299471993564E-003 -8.099489826214744E-003
 -0.327180849161556        1.00000000000000       0.000000000000000E+000
  0.000000000000000E+000  0.000000000000000E+000  0.000000000000000E+000
 -0.218154949867251       -1.00000000000000       0.000000000000000E+000
  0.000000000000000E+000  0.000000000000000E+000  0.000000000000000E+000
 -0.218154949867251      -0.968133451622095       2.902320408650399E-006
 -5.501702075284375E-002  6.883424533723213E-003 -7.338938128587626E-003
 -0.218154949867251      -0.881334751433768       3.717031868412661E-005
 -0.179932945600511       2.563835260895266E-002 -2.420851210248375E-002
 -0.218154949867251      -0.764271786586648       3.526621646282564E-004
 -0.240047130217114       4.837832033197344E-002 -3.407121245884089E-002
 -0.218154949867251      -0.653642386938342       2.478752176666361E-003
 -0.195938367892819       5.765790262473234E-002 -3.845303011704523E-002
 -0.218154949867251      -0.545511771864039       1.290681258047987E-002
 -0.127025867886567       4.451652994601703E-002 -6.354327432425730E-002
 -0.218154949867251      -0.436369536137632       4.978706836786394E-002
 -7.720916187013135E-002  1.383031433815906E-002 -0.129049853898812     
 -0.218154949867251      -0.327180849161556       0.142274071586514     
 -5.279914010418586E-002 -5.781047885440550E-003 -0.225159120359352     
 -0.218154949867251      -0.218154949867251       0.301194211912202     
 -4.327425733676365E-002  1.575139961697099E-002 -0.316715534653152     
 -0.218154949867251      -0.109079894803258       0.472366552741015     
 -3.995687338939857E-002  6.725236172109243E-002 -0.374412259127051     
 -0.218154949867251       6.199650627245017E-018  0.548811636094027     
 -3.906565531515387E-002  9.525826563198453E-002 -0.392590501991543     
 -0.218154949867251       0.109079894803258       0.472366552741015     
 -3.995687338939861E-002  6.725236172109296E-002 -0.374412259127051     
 -0.218154949867251       0.218154949867251       0.301194211912202     
 -4.327425733676343E-002  1.575139961697085E-002 -0.316715534653153     
 -0.218154949867251       0.327180849161556       0.142274071586514     
 -5.279914010418554E-002 -5.781047885440756E-003 -0.225159120359352     
 -0.218154949867251       0.436369536137632       4.978706836786401E-002
 -7.720916187013072E-002  1.383031433815916E-002 -0.129049853898812     
 -0.218154949867251       0.545511771864039       1.290681258047987E-002
 -0.127025867886566       4.451652994601722E-002 -6.354327432425685E-002
 -0.218154949867251       0.653642386938342       2.478752176666356E-003
 -0.195938367892819       5.765790262473260E-002 -3.845303011704505E-002
 -0.218154949867251       0.764271786586648       3.526621646282564E-004
 -0.240047130217115       4.837832033197365E-002 -3.407121245884095E-002
 -0.218154949867251       0.881334751433768       3.717031868412661E-005
 -0.179932945600511       2.563835260895260E-002 -2.420851210248385E-002
 -0.218154949867251       0.968133451622095       2.902320408650410E-006
 -5.501702075284369E-002  6.883424533723098E-003 -7.338938128587759E-003
 -0.218154949867251        1.00000000000000       0.000000000000000E+000
  0.000000000000000E+000  0.000000000000000E+000  0.000000000000000E+000
 -0.109079894803258       -1.00000000000000       0.000000000000000E+000
  0.000000000000000E+000  0.000000000000000E+000  0.000000000000000E+000
 -0.109079894803258      -0.968133451622095       4.551744463083230E-006
 -5.572279616848278E-002  2.104267732824478E-002 -1.257117486586458E-003
 -0.109079894803258      -0.881334751433768       5.829466373086871E-005
 -0.182283673592477       7.518793418113866E-002 -3.181361959719510E-003
 -0.109079894803258      -0.764271786586648       5.530843701478340E-004
 -0.243190574605536       0.128901564849853      -1.566485219925223E-003
 -0.109079894803258      -0.653642386938342       3.887457243476130E-003
 -0.197927046757896       0.143818502251058      -8.048175457965949E-003
 -0.109079894803258      -0.545511771864039       2.024191144580438E-002
 -0.126766276025048       0.118965318942756      -4.633704404380232E-002
 -0.109079894803258      -0.436369536137632       7.808166600115310E-002
 -7.496345750464660E-002  7.220247073802041E-002 -0.131588226153890     
 -0.109079894803258      -0.327180849161556       0.223130160148430     
 -4.963662779954267E-002  4.409826314621128E-002 -0.251974416592980     
 -0.109079894803258      -0.218154949867251       0.472366552741015     
 -3.995687338939857E-002  6.725236172109243E-002 -0.374412259127051     
 -0.109079894803258      -0.109079894803258       0.740818220681718     
 -3.668884611830706E-002  0.124511947354760      -0.463783063491746     
 -0.109079894803258       6.199650627245017E-018  0.860707976425058     
 -3.580926719733506E-002  0.155362919656386      -0.496202630580787     
 -0.109079894803258       0.109079894803258       0.740818220681718     
 -3.668884611830718E-002  0.124511947354761      -0.463783063491746     
 -0.109079894803258       0.218154949867251       0.472366552741015     
 -3.995687338939841E-002  6.725236172109232E-002 -0.374412259127051     
 -0.109079894803258       0.327180849161556       0.223130160148430     
 -4.963662779954251E-002  4.409826314621099E-002 -0.251974416592980     
 -0.109079894803258       0.436369536137632       7.808166600115324E-002
 -7.496345750464604E-002  7.220247073802033E-002 -0.131588226153889     
 -0.109079894803258       0.545511771864039       2.024191144580438E-002