 VARIABLES = "X", "t = 0.0", "t = 0.5", "t = 1.0", "t = 2.0" 
 ZONE I=          81 ,DATAPACKING=POINT
  -1.00000000000000       3.544974945630632E-009  1.208903827626494E-011
  3.505116874898885E-014  1.358282570201756E-019
 -0.992541044565502       2.874107662955789E-009  1.824585124601456E-011
  5.179945899906694E-014  1.992222929227763E-019
 -0.972224202192459       3.640190517527117E-009  4.296755552701782E-011
  1.214117203698342E-013  4.658756296639449E-019
 -0.944823447844214       1.259128363195090E-008  1.262982229294762E-010
  3.434861009244312E-013  1.297585544373221E-018
 -0.918928588529778       4.166308613394566E-008  3.261260114833743E-010
  8.477492612511225E-013  3.141288248785552E-018
 -0.893618623522791       1.255817110757740E-007  7.940479831576805E-010
  1.963122022839900E-012  7.113064732519660E-018
 -0.868071857849460       3.673792762993525E-007  1.897469071215028E-009
  4.446428455060296E-012  1.571185712664224E-017
 -0.842514195802155       1.047508019491936E-006  4.437203212750738E-009
  9.848872070061001E-012  3.388765517381168E-017
 -0.816994772663290       2.883215151939595E-006  1.016329556062248E-008
  2.139405045198889E-011  7.163671225576962E-017
 -0.791463688730091       7.677947463205493E-006  2.286727367380548E-008
  4.576517441028724E-011  1.491585411922949E-016
 -0.765930922161074       1.979092222150524E-005  5.055810785221164E-008
  9.653534602560594E-011  3.065303049206066E-016
 -0.740400471109480       4.934793776890966E-005  1.098646364131961E-007
  2.009753589929962E-010  6.227089310301660E-016
 -0.714869470088620       1.190270163496908E-004  2.347101058149484E-007
  4.132623912351341E-010  1.252100467136205E-015
 -0.689338314284597       2.776952682945370E-004  4.930015419305055E-007
  8.396805223412819E-010  2.494094975206957E-015
 -0.663807293864799       6.265771526595956E-004  1.018182541977656E-006
  1.686252673636825E-009  4.924781321886277E-015
 -0.638276249700818       1.367131491288292E-003  2.067651098324765E-006
  3.347577738817018E-009  9.644412412816962E-015
 -0.612745193583332       2.884151466804266E-003  4.128651009670903E-006
  6.570346391825463E-009  1.873872894129148E-014
 -0.587214145132922       5.882100905082327E-003  8.106240642341847E-006
  1.275052317795669E-008  3.613283309039824E-014
 -0.561683095812570       1.159529236572078E-002  1.564983861727985E-005
  2.446647110023279E-008  6.915997723980655E-014
 -0.536152045651199       2.208947982026472E-002  2.970815071828635E-005
  4.642287556461033E-008  1.314226184301047E-013
 -0.510620995910044       4.065864591618117E-002  5.545122133889958E-005
  8.710013592833235E-008  2.479720763875893E-013
 -0.485089946148888       7.229032519874620E-002  1.017674479524213E-004
  1.615983810724382E-007  4.646170768068464E-013
 -0.459558896332071       0.124121669290148       1.836367596782413E-004
  2.964759293069675E-007  8.645297710427808E-013
 -0.434027846537470       0.205738596838668       3.258008242372360E-004
  5.378699524261150E-007  1.597652701964194E-012
 -0.408496796743479       0.329094446494810       5.682945655346271E-004
  9.649401825519056E-007  2.932391608607483E-012
 -0.382965746945969       0.507769472880402       9.745599173500945E-004
  1.711818022561725E-006  5.345813809686644E-012
 -0.357434697149585       0.755298290429240       1.643009769219521E-003
  3.002941515824490E-006  9.679872611139761E-012
 -0.331903647353335        1.08240278888610       2.723007799810108E-003
  5.209133352340660E-006  1.740998635121211E-011
 -0.306372597556872        1.49321236635456       4.436218246709481E-003
  8.935317092907268E-006  3.110334832395534E-011
 -0.280841547760462        1.98092208497016       7.104077271473483E-003
  1.515571006285774E-005  5.519517438526948E-011
 -0.255310497964066        2.52376371995201       1.118164617275252E-002
  2.541907503717901E-005  9.729362429837850E-011
 -0.229779448167656        3.08251282161654       1.729722331221514E-002
  4.215557541915363E-005  1.703570092139522E-010
 -0.204248398371250        3.60085739148254       2.629573087186789E-002
  6.912834831026674E-005  2.962990325254466E-010
 -0.178717348574844        4.00966036078598       3.928201971709104E-002
  1.120873558840347E-004  5.119136003191398E-010
 -0.153186298778438        4.23540246284277       5.765790825581431E-002
  1.797004156917221E-004  8.785376928853387E-010
 -0.127655248982031        4.21199473110748       8.314418320163257E-002
  2.848561297846060E-004  1.497690561979130E-009
 -0.102124199185625        3.89397256127378       0.117776307520392     
  4.464546519828165E-004  2.536191622967725E-009
 -7.659314938921881E-002   3.26821121415329       0.163860753689567     
  6.918228410801522E-004  4.266191353940946E-009
 -5.106209959281254E-002   2.36110803916818       0.223878414828350     
  1.059907121440776E-003  7.128475528398843E-009
 -2.553104979640628E-002   1.23886510129403       0.300323221288658     
  1.605405629042097E-003  1.183179421103420E-008
 -1.387778780781446E-017 -1.265654248072678E-014  0.395468613654935     
  2.403994677360600E-003  1.950749561354749E-008
  2.553104979640625E-002  -1.23886510129406       0.511062333932956     
  3.558775401634563E-003  3.194836019177626E-008
  5.106209959281251E-002  -2.36110803916819       0.647961042601493     
  5.208005605586919E-003  5.197455567257322E-008
  7.659314938921878E-002  -3.26821121415329       0.805729804848779     
  7.534079888062054E-003  8.398989155155609E-008
  0.102124199185625       -3.89397256127379       0.982245959110848     
  1.077356945958651E-002  1.348205193138903E-007
  0.127655248982031       -4.21199473110747        1.17335995056724     
  1.522792572722613E-002  2.149692236028569E-007
  0.153186298778438       -4.23540246284277        1.37267449830457     
  2.127418777889213E-002  3.404758685440976E-007
  0.178717348574844       -4.00966036078598        1.57150497745921     
  2.937472004589798E-002  5.356541120321229E-007
  0.204248398371250       -3.60085739148255        1.75907565489227     
  4.008465973642370E-002  8.370834833424521E-007
  0.229779448167656       -3.08251282161654        1.92298713337462     
  5.405540379795693E-002  1.299383510526079E-006
  0.255310497964066       -2.52376371995200        2.04996055797448     
  7.203215567356012E-002  2.003494074810997E-006
  0.280841547760462       -1.98092208497017        2.12682651375552     
  9.484333968868708E-002  3.068447138219887E-006
  0.306372597556872       -1.49321236635456        2.14168592079848     
  0.123379642493383       4.667955333819628E-006
  0.331903647353335       -1.08240278888610        2.08513303422811     
  0.158560627820646       7.053580640839373E-006
  0.357434697149585      -0.755298290429240        1.95140390208301     
  0.201287359373566       1.058680108676450E-005
  0.382965746945969      -0.507769472880402        1.73930360769719     
  0.252380306845891       1.578298529346989E-005
  0.408496796743479      -0.329094446494810        1.45277647897698     
  0.312503021762923       2.337113280808631E-005
  0.434027846537470      -0.205738596838668        1.10101605602513     
  0.382073629274393       3.437425809814144E-005
  0.459558896332071      -0.124121669290148       0.698062964322922     
  0.461168010817945       5.021649644314127E-005
  0.485089946148888      -7.229032519874629E-002  0.261902228959503     
  0.549420510831803       7.286438753015469E-005
  0.510620995910044      -4.065864591618124E-002 -0.186862462722177     
  0.645929889183040       1.050113257746567E-004
  0.536152045651199      -2.208947982026479E-002 -0.626622047200545     
  0.749179815240839       1.503158068413215E-004
  0.561683095812570      -1.159529236572070E-002  -1.03648702636961     
  0.856984178912357       2.137057522927091E-004
  0.587214145132922      -5.882100905082336E-003  -1.39793228524319     
  0.966467606776114       3.017626756536199E-004
  0.612745193583332      -2.884151466804263E-003  -1.69618156586728     
   1.07409065668782       4.232004627377687E-004
  0.638276249700818      -1.367131491288293E-003  -1.92118785023076     
   1.17572694735022       5.894532695743378E-004
  0.663807293864799      -6.265771526595980E-004  -2.06812136967519     
   1.26679587161429       8.153831043277349E-004
  0.689338314284597      -2.776952682945350E-004  -2.13734372157140     
   1.34245058514321       1.120106735016275E-003
  0.714869470088620      -1.190270163496912E-004  -2.13390836729058     
   1.39781430342902       1.527908281236116E-003
  0.740400471109480      -4.934793776890960E-005  -2.06668482255761     
   1.42824782492918       2.069084369276816E-003
  0.765930922161074      -1.979092222150524E-005  -1.94724025057815     
   1.42961987311068       2.780317173262210E-003
  0.791463688730091      -7.677947463205500E-006  -1.78859591403933     
   1.39847813226743       3.703453010816797E-003
  0.816994772663290      -2.883215151939598E-006  -1.60411265239052     
   1.33184480008358       4.878491197352757E-003
  0.842514195802155      -1.047508019491936E-006  -1.40651011654148     
   1.22551609995522       6.321077753394445E-003
  0.868071857849460      -3.673792762993540E-007  -1.20667987187484     
   1.06641120112578       7.960680198398483E-003
  0.893618623522791      -1.255817110757728E-007  -1.01549417649917     
  0.803110257696769       9.435271063977808E-003
  0.918928588529778      -4.166308613394597E-008 -0.847397518360489     
  0.254756654607745       9.589916857063235E-003
  0.944823447844214      -1.259128363195094E-008 -0.742678435230301     
  -1.35843704661505       4.808163915030379E-003
  0.972224202192459      -3.640190517527070E-009 -0.867645008822155     
  -6.95531014820547      -1.678317278147669E-002
  0.992541044565502      -2.874107662955820E-009  -1.68769680887654     
  -20.0281856109258      -6.303238620406904E-002
   1.00000000000000      -3.544974945630690E-009  -2.37760972883951     
  -29.0099945487546      -9.259018941290094E-002
