 VARIABLES = "X", "t = 0.0", "t = 0.5", "t = 1.0", "t = 2.0" 
 ZONE I=          81 ,DATAPACKING=POINT
  -1.00000000000000       0.000000000000000E+000  0.000000000000000E+000
  0.000000000000000E+000  0.000000000000000E+000
 -0.992541044565502       2.368301176338535E-011  1.130761077170891E-013
  3.228755487513051E-016  1.244406064637625E-021
 -0.972224202192459       8.281671173444981E-011  7.032952197753926E-013
  1.997353381969234E-015  7.680958313754087E-021
 -0.944823447844214       2.791476724133813E-010  2.838557010551643E-012
  7.902833598509163E-015  3.014570796680398E-020
 -0.918928588529778       8.996095764394965E-010  8.298573429544413E-012
  2.239453407655713E-014  8.432773810236946E-020
 -0.893618623522791       2.817983329385677E-009  2.160641025740372E-011
  5.605244555145828E-014  2.075404882779160E-019
 -0.868071857849460       8.539880787122099E-009  5.395756273592728E-011
  1.336989315217224E-013  4.850412586140216E-019
 -0.842514195802155       2.506766075335092E-008  1.303512918298132E-010
  3.073847888514556E-013  1.089828640159800E-018
 -0.816994772663290       7.125057404875543E-008  3.066567383459275E-010
  6.872671182786587E-013  2.377347434222700E-018
 -0.791463688730091       1.961150064137751E-007  7.066578776981177E-010
  1.505694905390687E-012  5.076877981510787E-018
 -0.765930922161074       5.227234643424001E-007  1.597982414454169E-009
  3.242808534139810E-012  1.065649876538942E-017
 -0.740400471109480       1.349193563109402E-006  3.549622620559022E-009
  6.879927277284411E-012  2.204755550083813E-017
 -0.714869470088620       3.372228565271335E-006  7.750824433913627E-009
  1.440018664472503E-011  4.505582289129115E-017
 -0.689338314284597       8.162071272640973E-006  1.664224985670923E-008
  2.976177511971462E-011  9.107729782458909E-017
 -0.663807293864799       1.913041356526034E-005  3.514434344000018E-008
  6.077235990670965E-011  1.823027347819198E-016
 -0.638276249700818       4.341991226935762E-005  7.300127662826488E-008
  1.226531115619812E-010  3.616107115331820E-016
 -0.612745193583332       9.543202261403719E-005  1.491655524009636E-007
  2.447296391023673E-010  7.112271323145344E-016
 -0.587214145132922       2.031140285970105E-004  2.998407554992566E-007
  4.828406321722131E-010  1.387669228348879E-015
 -0.561683095812570       4.186261140704926E-004  5.929419559728333E-007
  9.420640461134964E-010  2.686707367800562E-015
 -0.536152045651199       8.355132030437540E-004  1.153572174993127E-006
  1.817819457590137E-009  5.163252438708606E-015
 -0.510620995910044       1.614808112566815E-003  2.207993620169236E-006
  3.469274649076553E-009  9.851014377232489E-015
 -0.485089946148888       3.022241276035202E-003  4.157948816331987E-006
  6.548792990844886E-009  1.866206198898835E-014
 -0.459558896332071       5.477444014494953E-003  7.703629923225561E-006
  1.222730889715256E-008  3.510839233078786E-014
 -0.434027846537470       9.613186470487549E-003  1.404275693591643E-005
  2.258170934335864E-008  6.559564878167103E-014
 -0.408496796743479       1.633794352272206E-002  2.518575811014143E-005
  4.125211080946642E-008  1.217259703036444E-013
 -0.382965746945969       2.688858937615794E-002  4.444344264207417E-005
  7.454261205673841E-008  2.243676086194747E-013
 -0.357434697149585       4.285280474564918E-002  7.716389359397278E-005
  1.332406324096695E-007  4.107949663252120E-013
 -0.331903647353335       6.613495917442974E-002  1.318188761855832E-004
  2.355842335945563E-007  7.471252062068527E-013
 -0.306372597556872       9.883790516972914E-002  2.215648731983517E-004
  4.120372257910346E-007  1.349823903008968E-012
 -0.280841547760462       0.143039696206218       3.664261372845891E-004
  7.128697375063146E-007  2.422623731034097E-012
 -0.255310497964066       0.200461156077559       5.962607916716392E-004
  1.220028118576567E-006  4.319442630517276E-012
 -0.229779448167656       0.272047341857191       9.546673137638241E-004
  2.065463850291022E-006  7.650831062820985E-012
 -0.204248398371250       0.357519181687214       1.503956535025704E-003
  3.459038306201168E-006  1.346274968303756E-011
 -0.178717348574844       0.454982626045085       2.331240805605375E-003
  5.730399115139957E-006  2.353462930613144E-011
 -0.153186298778438       0.560700422090747       3.555564620578408E-003
  9.390908894746798E-006  4.087265383999027E-011
 -0.127655248982031       0.669125464171460       5.335810323928282E-003
  1.522386798799824E-005  7.052012490936136E-011
 -0.102124199185625       0.773258739021153       7.878856123307474E-003
  2.441396075075527E-005  1.208788974588383E-010
 -7.659314938921881E-002  0.865331913375447       1.144715089391859E-002
  3.873008226027244E-005  2.058482340042156E-010
 -5.106209959281254E-002  0.937737339118545       1.636452660318109E-002
  6.077941515255237E-005  3.482609681674450E-010
 -2.553104979640628E-002  0.984057107179089       2.301873932786545E-002
  9.435467027968259E-005  5.853626261378299E-010
 -1.387778780781446E-017   1.00000000000000       3.185897778919993E-002
  1.449004857935535E-004  9.774826169167489E-010
  2.553104979640625E-002  0.984057107179089       4.338648322873798E-002
  2.201286223239288E-004  1.621653775298769E-009
  5.106209959281251E-002  0.937737339118545       5.813657083010558E-002
  3.308141059888958E-004  2.672842206355899E-009
  7.659314938921878E-002  0.865331913375447       7.665080548537041E-002
  4.918049268756310E-004  4.376788180217503E-009
  0.102124199185625       0.773258739021153       9.943890898256622E-002
  7.232751353271551E-004  7.120419928308577E-009
  0.127655248982031       0.669125464171460       0.126931157207107     
  1.052243838627663E-003  1.150864834867479E-008
  0.153186298778438       0.560700422090747       0.159423492936365     
  1.514369239838421E-003  1.848044250528304E-008
  0.178717348574844       0.454982626045085       0.197019184369607     
  2.156006099592897E-003  2.948291241588204E-008
  0.204248398371250       0.357519181687214       0.239572382489759     
  3.036485759704458E-003  4.673034151344512E-008
  0.229779448167656       0.272047341857191       0.286640102965854     
  4.230539656495723E-003  7.358658067856833E-008
  0.255310497964066       0.200461156077559       0.337449700997181     
  5.830740517006222E-003  1.151250640065580E-007
  0.280841547760462       0.143039696206218       0.390888581365346     
  7.949781900666550E-003  1.789423758571233E-007
  0.306372597556872       9.883790516972914E-002  0.445521548666628     
  1.072235973876669E-002  2.763306079990543E-007
  0.331903647353335       6.613495917442974E-002  0.499638857162650     
  1.430636413009415E-002  4.239529471990788E-007
  0.357434697149585       4.285280474564918E-002  0.551334842994583     
  1.888304274971449E-002  6.462187615426920E-007
  0.382965746945969       2.688858937615794E-002  0.598613363601288     
  2.465576720888767E-002  9.786221526510983E-007
  0.408496796743479       1.633794352272206E-002  0.639512616098093     
  3.184702987619093E-002  1.472395260725640E-006
  0.434027846537470       9.613186470487549E-003  0.672238810298471     
  4.069333032017720E-002  2.200938748570742E-006
  0.459558896332071       5.477444014494953E-003  0.695296158466403     
  5.143768567959463E-002  3.268631366333345E-006
  0.485089946148888       3.022241276035202E-003  0.707600112684724     
  6.431962309598964E-002  4.822792905269798E-006
  0.510620995910044       1.614808112566815E-003  0.708561923115318     
  7.956268570288612E-002  7.069784475458287E-006
  0.536152045651199       8.355132030437540E-004  0.698135337784098     
  9.735970217816996E-002  1.029648037970041E-005
  0.561683095812570       4.186261140704926E-004  0.676820285210750     
  0.117856321008308       1.489863847054978E-005
  0.587214145132922       2.031140285970105E-004  0.645623135414541     
  0.141133574295127       2.141802846044711E-005
  0.612745193583332       9.543202261403719E-005  0.605977931984285     
  0.167190500175449       3.059054555255856E-005
  0.638276249700818       4.341991226935762E-005  0.559637169911392     
  0.195928065731942       4.340791650263650E-005
  0.663807293864799       1.913041356526034E-005  0.508543791987550     
  0.227135714627053       6.119590781247103E-005
  0.689338314284597       8.162071272640973E-006  0.454697181346831     
  0.260482095088420       8.571218332934656E-005
  0.714869470088620       3.372228565271335E-006  0.400025712798546     
  0.295511419459863       1.192667398515691E-004
  0.740400471109480       1.349193563109402E-006  0.346278805672752     
  0.331645231418152       1.648643392480154E-004
  0.765930922161074       5.227234643424001E-007  0.294942594883138     
  0.368192461400746       2.263647711733850E-004
  0.791463688730091       1.961150064137751E-007  0.247180424014400     
  0.404369952751368       3.086472603036025E-004
  0.816994772663290       7.125057404875543E-008  0.203829636681427     
  0.439304745720519       4.176434878756628E-004
  0.842514195802155       2.506766075335092E-008  0.165399797786522     
  0.472035221374342       5.600357595302026E-004
  0.868071857849460       8.539880787122099E-009  0.132014635969740     
  0.501489000619049       7.424324509160507E-004
  0.893618623522791       2.817983329385677E-009  0.103667543779189     
  0.525801521601021       9.660432350220861E-004
  0.918928588529778       8.996095764394965E-010  8.018544508662000E-002
  0.540463868366423       1.212468174031109E-003
  0.944823447844214       2.791476724133813E-010  5.997524745094339E-002
  0.531087534820651       1.418631001378188E-003
  0.972224202192459       8.281671173444981E-011  3.899466835708470E-002
  0.433345517242321       1.317701382325109E-003
  0.992541044565502       2.368301176338535E-011  1.497981972412260E-002
  0.181003957985999       5.749361934698653E-004
   1.00000000000000       0.000000000000000E+000  0.000000000000000E+000
  0.000000000000000E+000  0.000000000000000E+000
