 VARIABLES = "X", "U", "Error U" 
 ZONE I=          21 ,DATAPACKING=POINT
  -1.00000000000000        1.00000000000000       1.110223024625157E-016
 -0.968133451622095        1.01407380303263       7.880740504617734E-011
 -0.881334751433768        1.04714821907411       3.771782886019537E-010
 -0.764271786586648        1.07923096003486       7.567175774880752E-010
 -0.653642386938342        1.09597827852186       1.106064351219516E-009
 -0.545511771864039        1.09939865048005       1.393059889664983E-009
 -0.436369536137632        1.08982857432266       1.625831691498547E-009
 -0.327180849161556        1.06727699067351       1.799760784848559E-009
 -0.218154949867251        1.03207563186543       1.914704617078655E-009
 -0.109079894803258       0.984594420481183       1.970071772383619E-009
  6.199650627245017E-018  0.925407860807244       1.966781515427840E-009
  0.109079894803258       0.855221319869563       1.907137225920508E-009
  0.218154949867251       0.774872856079990       1.794553949885369E-009
  0.327180849161556       0.685356860186784       1.633212565188558E-009
  0.436369536137632       0.587551009358905       1.425853213277151E-009
  0.545511771864039       0.482793132016792       1.184131959153234E-009
  0.653642386938342       0.373336569888210       9.070981188408211E-010
  0.764271786586648       0.256847886403233       5.409905856623709E-010
  0.881334751433768       0.130196066829684       2.816835098506942E-010
  0.968133451622095       3.503931099884816E-002 -3.528299874488994E-011
   1.00000000000000       0.000000000000000E+000  1.110223024625157E-016
