 VARIABLES = "X", "fp", "yp", "I", "fp-yp", "yp-I_N", "fp - I_N"
 ZONE I=         501 ,DATAPACKING=POINT
 -0.999999000000000      -3.141592653694460E-006 -2.713513145199681E-002
 -2.994733432718644E-006  2.713198985934311E-002 -2.713213671856409E-002
 -1.468592209758164E-007
 -0.995999004000000      -1.256916866251952E-002 -3.753108960578866E-002
 -1.200912924167309E-002  2.496192094326914E-002 -2.552196036411557E-002
 -5.600394208464341E-004
 -0.991999008000000      -2.513321091891669E-002 -4.802425152140749E-002
 -2.406688958473036E-002  2.289104060249080E-002 -2.395736193667713E-002
 -1.066321334186326E-003
 -0.987999012000000      -3.769328435789388E-002 -5.860973866697305E-002
 -3.617213292154856E-002  2.091645430907917E-002 -2.243760574542450E-002
 -1.521151436345326E-003
 -0.983999016000000      -5.024740560222036E-002 -6.928272669354765E-002
 -4.832076392223915E-002  1.903532109132729E-002 -2.096196277130850E-002
 -1.926641679981210E-003
 -0.979999020000000      -6.279359221458534E-002 -8.003844521662032E-002
 -6.050873457650417E-002  1.724485300203497E-002 -1.952971064011615E-002
 -2.284857638081179E-003
 -0.975999024000000      -7.532986301064466E-002 -9.087217759763197E-002
 -7.273204400205847E-002  1.554231458698731E-002 -1.814013359557350E-002
 -2.597819008586189E-003
 -0.971999028000000      -8.785423837187370E-002 -0.101779260725491     
 -8.498673825305289E-002  1.392502235361773E-002 -1.679252247243854E-002
 -2.867500118820809E-003
 -0.967999032000000      -0.100364740558171      -0.112755084798100     
 -9.726891012849678E-002  1.239034423992894E-002 -1.548617466960335E-002
 -3.095830429674415E-003
 -0.963999036000000      -0.112859394020166      -0.123795093103871     
 -0.109574698980680       1.093569908370447E-002 -1.422039412319033E-002
 -3.284695039485863E-003
 -0.959999040000000      -0.125336225711181      -0.134894781803249     
 -0.121900290523598       9.558556092067738E-003 -1.299449127965104E-002
 -3.435935187583297E-003
 -0.955999044000000      -0.137793265398796      -0.146049699710234     
 -0.134241916641371       8.256434311437744E-003 -1.180778306886357E-002
 -3.551348757425826E-003
 -0.951999048000000      -0.150228545975973      -0.157255448073900     
 -0.146595855196669       7.026902097927362E-003 -1.065959287723131E-002
 -3.632690779303949E-003
 -0.947999052000000      -0.162640103771680      -0.168507680359918     
 -0.158958429839135       5.867576588237722E-003 -9.549250520782926E-003
 -3.681673932545204E-003
 -0.943999056000000      -0.175025978860983      -0.179802102032071     
 -0.171326009813805       4.776123171088748E-003 -8.476092218265924E-003
 -3.699969047177176E-003
 -0.939999060000000      -0.187384215374534      -0.191134470333784     
 -0.183695009769536       3.750254959250438E-003 -7.439460564248435E-003
 -3.689205604997997E-003
 -0.935999064000000      -0.199712861807430      -0.202500594069638     
 -0.196061889567420       2.787732262208076E-003 -6.438704502218590E-003
 -3.650972240010514E-003
 -0.931999068000000      -0.212009971327375      -0.213896333386892     
 -0.208423154089215       1.886362059517088E-003 -5.473179297677183E-003
 -3.586817238160095E-003
 -0.927999072000000      -0.224273602082107      -0.225317599557008     
 -0.220775353045766       1.043997474900443E-003 -4.542246511241799E-003
 -3.498249036341355E-003
 -0.923999076000000      -0.236501817506038      -0.236760354757163     
 -0.233115080785423       2.585372511255679E-004 -3.645273971740415E-003
 -3.386736720614847E-003
 -0.919999080000000      -0.248692686626060      -0.248220611851782     
 -0.245438976102469      -4.720747742781584E-004 -2.781635749313366E-003
 -3.253710523591524E-003
 -0.915999084000000      -0.260844284366469      -0.259694434174047     
 -0.257743722045540      -1.149850192421420E-003 -1.950712128507948E-003
 -3.100562320929368E-003
 -0.911999088000000      -0.272954691852953      -0.271177935307429     
 -0.270026045726048      -1.776756545523728E-003 -1.151889581381238E-003
 -2.928646126904966E-003
 -0.907999092000000      -0.285021996715607      -0.282667278867198     
 -0.282282718126606      -2.354717848409016E-003 -3.845607405911222E-004
 -2.739278589000138E-003
 -0.903999096000000      -0.297044293390914      -0.294158678281950     
 -0.294510553909448      -2.885615108964179E-003  3.518756274982215E-004
 -2.533739481465958E-003
 -0.899999100000000      -0.309019683422661      -0.305648396575129     
 -0.306706411224851      -3.371286847531629E-003  1.058014649722050E-003
 -2.313272197809579E-003
 -0.895999104000000      -0.320946275761719      -0.317132746146544     
 -0.318867191519561      -3.813529615175393E-003  1.734445373017313E-003
 -2.079084242158080E-003
 -0.891999108000000      -0.332822187064669      -0.328608088553892     
 -0.330989839345214      -4.214098510776809E-003  2.381750791322190E-003
 -1.832347719454619E-003
 -0.887999112000000      -0.344645541991196      -0.340070834294280     
 -0.343071342166759      -4.574707696915370E-003  3.000507872478464E-003
 -1.574199824436906E-003
 -0.883999116000000      -0.356414473500229      -0.351517442585742     
 -0.355108730170877      -4.897030914486677E-003  3.591287585134495E-003
 -1.305743329352183E-003
 -0.879999120000000      -0.368127123144771      -0.362944421148763     
 -0.367099076074412      -5.182701996007955E-003  4.154654925648371E-003
 -1.028047070359583E-003
 -0.875999124000000      -0.379781641365366      -0.374348325987800     
 -0.379039494932786      -5.433315377565584E-003  4.691168944985391E-003
 -7.421464325801930E-004
 -0.871999128000000      -0.391376187782163      -0.385725761172801     
 -0.390927143948425      -5.650426609361825E-003  5.201382775623986E-003
 -4.490438337378388E-004
 -0.867999132000000      -0.402908931485536      -0.397073378620727     
 -0.402759222279182      -5.835552864809190E-003  5.685843658454870E-003
 -1.497092063543204E-004
 -0.863999136000000      -0.414378051325206      -0.408387877877074     
 -0.414532970846758      -5.990173448132130E-003  6.145092969684351E-003
  1.549195215522214E-004
 -0.859999140000000      -0.425781736197817      -0.419666005897390     
 -0.426245672145127      -6.115730300426503E-003  6.579666247736593E-003
  4.639359473100901E-004
 -0.855999144000000      -0.437118185332933      -0.430904556828801     
 -0.437894650048955      -6.213628504131929E-003  6.990093220153482E-003
  7.764647160215521E-004
 -0.851999148000000      -0.448385608577401      -0.442100371791528     
 -0.449477269622027      -6.285236785873782E-003  7.376897830499662E-003
  1.091661044625880E-003
 -0.847999152000000      -0.459582226678033      -0.453250338660409     
 -0.460990936925669      -6.331888017624021E-003  7.740598265259635E-003
  1.408710247635614E-003
 -0.843999156000000      -0.470706271562570      -0.464351391846421     
 -0.472433098827166      -6.354879716149731E-003  8.081706980744952E-003
  1.726827264595221E-003
 -0.839999160000000      -0.481755986618886      -0.475400512078199     
 -0.483801242808191      -6.355474540686634E-003  8.400730729991590E-003
  2.045256189304956E-003
 -0.835999164000000      -0.492729626972369      -0.486394726183559     
 -0.495092896773224      -6.334900788810160E-003  8.698170589664933E-003
  2.363269800854773E-003
 -0.831999168000000      -0.503625459761464      -0.497331106871016     
 -0.506305628857976      -6.294352890448329E-003  8.974521986960360E-003
  2.680169096512031E-003
 -0.827999172000000      -0.514441764411305      -0.508206772511308     
 -0.517437047237811      -6.234991899997655E-003  9.230274726503507E-003
  2.995282826505852E-003
 -0.823999176000000      -0.525176832905419      -0.519018886918915     
 -0.528484799936170      -6.157945986504099E-003  9.465913017255190E-003
  3.307967030751091E-003
 -0.819999180000000      -0.535828970055433      -0.529764659133579     
 -0.539446574632991      -6.064310921854332E-003  9.681915499411886E-003
  3.617604577557554E-003
 -0.815999184000000      -0.546396493768775      -0.540441343201829     
 -0.550320098473135      -5.955150566946177E-003  9.878755271306328E-003
  3.923604704360151E-003
 -0.811999188000000      -0.556877735314284      -0.551046237958496     
 -0.561103137874807      -5.831497355788140E-003  1.005689991631087E-002
  4.225402560522729E-003
 -0.807999192000000      -0.567271039585728      -0.561576686808238     
 -0.571793498337978      -5.694352777489420E-003  1.021681152973986E-002
  4.522458752250436E-003
 -0.803999196000000      -0.577574765363161      -0.572030077507061     
 -0.582389024252810      -5.544687856100294E-003  1.035894674574966E-002
  4.814258889649370E-003
 -0.799999200000000      -0.587787285572094      -0.582403841943837     
 -0.592887598708078      -5.383443628256712E-003  1.048375676424074E-002
  5.100313135984025E-003
 -0.795999204000000      -0.597906987540423      -0.592695455921828     
 -0.603287143299589      -5.211531618594889E-003  1.059168737776073E-002
  5.380155759165839E-003
 -0.791999208000000      -0.607932273253091      -0.602902438940202     
 -0.613585617938608      -5.029834312888726E-003  1.068317899840576E-002
  5.653344685517037E-003
 -0.787999212000000      -0.617861559604435      -0.613022353975563     
 -0.623781020660286      -4.839205628872634E-003  1.075866668472325E-002
  5.919461055850617E-003
 -0.783999216000000      -0.627693278648172      -0.623052807263459     
 -0.633871387432070      -4.640471384712352E-003  1.081858016861104E-002
  6.178108783898684E-003
 -0.779999220000000      -0.637425877844995      -0.632991448079917     
 -0.643854791962138      -4.434429765078463E-003  1.086334388222143E-002
  6.428914117142970E-003
 -0.775999224000000      -0.647057820307744      -0.642835968522951     
 -0.653729345507814      -4.221851784792174E-003  1.089337698486292E-002
  6.671525200070749E-003
 -0.771999228000000      -0.656587585044086      -0.652584103294094     
 -0.663493196683995      -4.003481749992432E-003  1.090909338990087E-002
  6.905611639908438E-003
 -0.767999232000000      -0.666013667196708      -0.662233629479908     
 -0.673144531271569      -3.780037716800355E-003  1.091090179166121E-002
  7.130864074860854E-003
 -0.763999236000000      -0.675334578280944      -0.671782366333515     
 -0.682681572025845      -3.552211947429273E-003  1.089920569233016E-002
  7.346993744900887E-003
 -0.759999240000000      -0.684548846419826      -0.681228175056111     
 -0.692102578484968      -3.320671363714611E-003  1.087440342885715E-002
  7.553732065142538E-003
 -0.755999244000000      -0.693655016576510      -0.690568958578490     
 -0.701405846778347      -3.086057998019198E-003  1.083688819985695E-002
  7.750830201837755E-003
 -0.751999248000000      -0.702651650784041      -0.699802661342564     
 -0.710589709435076      -2.848989441477046E-003  1.078704809251196E-002
  7.938058651034918E-003
 -0.747999252000000      -0.711537328372428      -0.708927269082883     
 -0.719652535192355      -2.610059289544941E-003  1.072526610947189E-002
  8.115206819926946E-003
 -0.743999256000000      -0.720310646192980      -0.717940808608160     
 -0.728592728803916      -2.369837584820345E-003  1.065192019575634E-002
  8.282082610935992E-003
 -0.739999260000000      -0.728970218839879      -0.726841347582782     
 -0.737408730848443      -2.128871257097043E-003  1.056738326566087E-002
  8.438512008563825E-003
 -0.735999264000000      -0.737514678868956      -0.735626994308346     
 -0.746099017537996      -1.887684560610170E-003  1.047202322965035E-002
  8.584338669040181E-003
 -0.731999268000000      -0.745942677013618      -0.744295897505164     
 -0.754662100526434      -1.646779508453822E-003  1.036620302126923E-002
  8.719423512815405E-003
 -0.727999272000000      -0.754252882397922      -0.752846246093797     
 -0.763096526717836      -1.406636304124853E-003  1.025028062403899E-002
  8.843644319914135E-003
 -0.723999276000000      -0.762443982746725      -0.761276268976565     
 -0.771400878074925      -1.167713770159229E-003  1.012460909835988E-002
  8.956895328200654E-003
 -0.719999280000000      -0.770514684592915      -0.769584234819079     
 -0.779573771427493      -9.304497738364947E-004  9.989536608414173E-003
  9.059086834577679E-003
 -0.715999284000000      -0.778463713481662      -0.777768451831749     
 -0.787613858280817      -6.952616499127373E-004  9.845406449068506E-003
  9.150144799155768E-003
 -0.711999288000000      -0.786289814171665      -0.785827267551317     
 -0.795519824624091      -4.625466203488360E-004  9.692557072774055E-003
  9.230010452425219E-003
 -0.707999292000000      -0.793991750833376      -0.793759068622370     
 -0.803290390738838      -2.326822110062521E-004  9.531322116468566E-003
  9.298639905462314E-003
 -0.703999296000000      -0.801568307244144      -0.801562280578866     
 -0.810924311007344      -6.026665277603094E-006  9.362030428478385E-003
  9.356003763200782E-003
 -0.699999300000000      -0.809018286980273      -0.809235367625649     
 -0.818420373721071       2.170806453759555E-004  9.185006095422943E-003
  9.402086740798898E-003
 -0.695999304000000      -0.816340513605953      -0.816776832419976     
 -0.825777400889087       4.363188140223961E-004  9.000568469111792E-003
  9.436887283134188E-003
 -0.691999308000000      -0.823533830859032      -0.824185215853032     
 -0.832994248046483       6.513849940004146E-004  8.809032193451083E-003
  9.460417187451498E-003
 -0.687999312000000      -0.830597102833598      -0.831459096831459     
 -0.840069804062800       8.619939978607993E-004  8.610707231340387E-003
  9.472701229201186E-003
 -0.683999316000000      -0.837529214159359      -0.838597092058867     
 -0.847002990950447       1.067877899508352E-003  8.405898891580166E-003
  9.473776791088517E-003
 -0.679999320000000      -0.844329070177764      -0.845597855817362     
 -0.853792763673132       1.268785639598202E-003  8.194907855769706E-003
  9.463693495367909E-003
 -0.675999324000000      -0.850995597114870      -0.852460079749064     
 -0.860438109954274       1.464482634193853E-003  7.978030205210485E-003
  9.442512839404338E-003
 -0.671999328000000      -0.857527742250898      -0.859182492637628     
 -0.866938050085435       1.654750386729797E-003  7.755557447806760E-003
  9.410307834536558E-003
 -0.667999332000000      -0.863924474086472      -0.865763860189767     
 -0.873291636734737       1.839386103295149E-003  7.527776544969500E-003
  9.367162648264649E-003
 -0.663999336000000      -0.870184782505500      -0.872202984816769     
 -0.879497954755285       2.018202311269146E-003  7.294969938515972E-003
  9.313172249785118E-003
 -0.659999340000000      -0.876307678934690      -0.878498705416022     
 -0.885556120993596       2.191026481332181E-003  7.057415577573667E-003
  9.248442058905848E-003
 -0.655999344000000      -0.882292196499650      -0.884649897152532     
 -0.891465284098012       2.357700652882322E-003  6.815386945479562E-003
  9.173087598361884E-003
 -0.651999348000000      -0.888137390177571      -0.890655471240445     
 -0.897224624327129       2.518081062873545E-003  6.569153086684265E-003
  9.087234149557810E-003
 -0.647999352000000      -0.893842336946458      -0.896514374724565     
 -0.902833353358221       2.672037778107206E-003  6.318978633655492E-003
  8.991016411762698E-003
 -0.643999356000000      -0.899406135930885      -0.902225590261883     
 -0.908290714095657       2.819454330998172E-003  6.065123833773556E-003
  8.884578164771728E-003
 -0.639999360000000      -0.904827908544251      -0.907788135903089     
 -0.913595980479328       2.960227358837941E-003  5.807844576238730E-003
  8.768071935076671E-003
 -0.635999364000000      -0.910106798627522      -0.913201064874096     
 -0.918748457293068       3.094266246573607E-003  5.547392418972619E-003
  8.641658665546226E-003
 -0.631999368000000      -0.915241972584425      -0.918463465357561     
 -0.923747479973079       3.221492773135548E-003  5.284014615517640E-003
  8.505507388653188E-003
 -0.627999372000000      -0.920232619513087      -0.923574460274408     
 -0.928592414416349       3.341840761320936E-003  5.017954141940506E-003
  8.359794903261442E-003
 -0.623999376000000      -0.925077951334080      -0.928533207065345     
 -0.933282656789079       3.455255731265816E-003  4.749449723733923E-003
  8.204705454999739E-003
 -0.619999380000000      -0.929777202914870      -0.933338897472389     
 -0.937817633335107       3.561694557519202E-003  4.478735862717742E-003
  8.040430420236944E-003
 -0.615999384000000      -0.934329632190642      -0.937990757320381     
 -0.942196800184323       3.661125129739706E-003  4.206042863941994E-003
  7.867167993681701E-003
 -0.611999388000000      -0.938734520281477      -0.942488046298514     
 -0.946419643161101       3.753526017037490E-003  3.931596862586706E-003
  7.685122879624195E-003
 -0.607999392000000      -0.942991171605874      -0.946830057741848     
 -0.950485677592714       3.838886135974828E-003  3.655619850865710E-003
  7.494505986840538E-003
 -0.603999396000000      -0.947098913990588      -0.951016118412835     
 -0.954394448117764       3.917204422246856E-003  3.378329704929794E-003
  7.295534127176651E-003
 -0.599999400000000      -0.951057098776776      -0.955045588282836     
 -0.958145528494599       3.988489506060566E-003  3.099940211762298E-003
  7.088429717822864E-003
 -0.595999404000000      -0.954865100922425      -0.958917860313647     
 -0.961738521409736       4.052759391221739E-003  2.820661096089250E-003
  6.873420487310988E-003
 -0.591999408000000      -0.958522319101056      -0.962632360239013     
 -0.965173058286287       4.110041137957543E-003  2.540698047274081E-003
  6.650739185231624E-003
 -0.587999412000000      -0.962028175796676      -0.966188546346156     
 -0.968448799092382       4.160370549479597E-003  2.260252746226210E-003
  6.420623295705807E-003
 -0.583999416000000      -0.965382117394981      -0.969585909257291     
 -0.971565432149586       4.203791862310458E-003  1.979522892294638E-003
  6.183314754605096E-003
 -0.579999420000000      -0.968583614270770      -0.972823971711149     
 -0.974522673941327       4.240357440378872E-003  1.698702230178206E-003
  5.939059670557079E-003
 -0.575999424000000      -0.971632160871586      -0.975902288344497     
 -0.977320268921319       4.270127472910668E-003  1.417980576822298E-003
  5.688108049732965E-003
 -0.571999428000000      -0.974527275797542      -0.978820445473658     
 -0.979957989321980       4.293169676115705E-003  1.137543848321987E-003
  5.430713524437691E-003
 -0.567999432000000      -0.977268501877346      -0.981578060876036     
 -0.982435634962859       4.309558998690455E-003  8.575740868225212E-004
  5.167133085512976E-003
 -0.563999436000000      -0.979855406240487      -0.984174783571631     
 -0.984753033059056       4.319377331144736E-003  5.782494874250199E-004
  4.897626818569756E-003
 -0.559999440000000      -0.982287580385595      -0.986610293604565     
 -0.986910038029650       4.322713218970375E-003  2.997444250844028E-004
  4.622457644054778E-003
 -0.555999444000000      -0.984564640244946      -0.988884301824599     
 -0.988906531306113       4.319661579652911E-003  2.222948151353599E-005
  4.341891061166447E-003
 -0.551999448000000      -0.986686226245112      -0.990996549668656     
 -0.990742421140739       4.310323423544649E-003 -2.541285279176186E-004
  4.056194895627030E-003
 -0.547999452000000      -0.988652003363738      -0.992946808942342     
 -0.992417642415066       4.294805578604621E-003 -5.291665272761925E-004
  3.765639051328429E-003
 -0.543999456000000      -0.990461661182450      -0.994734881601466     
 -0.993932156448298       4.273220419016233E-003 -8.027251531681490E-004
  3.470495265848084E-003
 -0.539999460000000      -0.992114913935872      -0.996360599533560     
 -0.995285950805726       4.245685597688453E-003 -1.074648727834471E-003
  3.171036869853983E-003
 -0.535999464000000      -0.993611500556751      -0.997823824339403     
 -0.996479039107154       4.212323782652461E-003 -1.344785232249568E-003
  2.867538550402893E-003
 -0.531999468000000      -0.994951184717184      -0.999124447114539     
 -0.997511460835318       4.173262397355382E-003 -1.612986279221129E-003
  2.560276118134253E-003
 -0.527999472000000      -0.996133754865934       -1.00026238823080     
 -0.998383281144313       4.128633364863687E-003 -1.879107086484533E-003
  2.249526278379155E-003
 -0.523999476000000      -0.997159024261840       -1.00123759711782     
 -0.999094590668012       4.078572855977791E-003 -2.143006449805251E-003
  1.935566406172540E-003
 -0.519999480000000      -0.998026831003302       -1.00205005204457     
 -0.999645505328491       4.023221041263292E-003 -2.404546716074263E-003
  1.618674325189029E-003
 -0.515999484000000      -0.998737038053851       -1.00269975990086     
  -1.00003616614445       3.962721847006190E-003 -2.663593756407234E-003
  1.299128090598956E-003
 -0.511999488000000      -0.999289533263783       -1.00318675597888     
  -1.00026673903964       3.897222715094850E-003 -2.920016939242709E-003
  9.772057758521413E-004
 -0.507999492000000      -0.999684229387877       -1.00351110375471     
  -1.00033741465127       3.826874366831268E-003 -3.173689103440624E-003
  6.531852633906432E-004
 -0.503999496000000      -0.999921064099161       -1.00367289466983     
  -1.00024840813846       3.751830570672854E-003 -3.424486531378168E-003
  3.273440392946858E-004
 -0.499999500000000      -0.999999999998766       -1.00367224791268     
 -0.999999958990629       3.672247913913296E-003 -3.672288922050848E-003
 -4.100813755236743E-008
 -0.495999504000000      -0.999921024621822       -1.00350931020012     
 -0.999592330835950       3.588285578297379E-003 -3.916979364169793E-003
 -3.286937858724137E-004
 -0.491999508000000      -0.999684150439432       -1.00318425555901     
 -0.999025811249747       3.500105119572772E-003 -4.158444309258380E-003
 -6.583391896856083E-004
 -0.487999512000000      -0.999289414856701       -1.00269728510768     
 -0.998300711562928       3.407870250980993E-003 -4.396573544753424E-003
 -9.887032937724305E-004
 -0.483999516000000      -0.998736880206827       -1.00204862683751     
 -0.997417366670412       3.311746630684120E-003 -4.631260167099138E-003
 -1.319513536415018E-003
 -0.479999520000000      -0.998026633741264       -1.00123853539439     
 -0.996376134839544       3.211901653129567E-003 -4.862400554849322E-003
 -1.650498901719755E-003
 -0.475999524000000      -0.997158787615937       -1.00026729186029     
 -0.995177397518522       3.108504244348831E-003 -5.089894341764101E-003
 -1.981390097415270E-003
 -0.471999528000000      -0.996133478873535      -0.999135203534724     
 -0.993821559144817       3.001724661188754E-003 -5.313644389906558E-003
 -2.311919728717804E-003
 -0.467999532000000      -0.994950869421872      -0.997842603716345     
 -0.992309046953600       2.891734294472981E-003 -5.533556762744363E-003
 -2.641822468271382E-003
 -0.463999536000000      -0.993611146008314      -0.996389851484405     
 -0.990640310786162       2.778705476090160E-003 -5.749540698242295E-003
 -2.970835222152135E-003
 -0.459999540000000      -0.992114520190298      -0.994777331480301     
 -0.988815822898335       2.662811290003564E-003 -5.961508581966091E-003
 -3.298697291962527E-003
 -0.455999544000000      -0.990461228301915      -0.993005453689096     
 -0.986836077768916       2.544225387181021E-003 -6.169375920179521E-003
 -3.625150532998500E-003
 -0.451999548000000      -0.988651531416599      -0.991074653221032     
 -0.984701591908093       2.423121804433492E-003 -6.373061312939021E-003
 -3.949939508505529E-003
 -0.447999552000000      -0.986685715305895      -0.988985390093058     
 -0.982412903665863       2.299674787163530E-003 -6.572486427195545E-003
 -4.272811640032015E-003
 -0.443999556000000      -0.984564090394334      -0.986738149010347     
 -0.979970573040457       2.174058616013053E-003 -6.767575969890194E-003
 -4.593517353877141E-003
 -0.439999560000000      -0.982286991710415      -0.984333439147818     
 -0.977375181486762       2.046447437402565E-003 -6.958257661055511E-003
 -4.911810223652946E-003
 -0.435999564000000      -0.979854778833698      -0.981771793931656     
 -0.974627331724746       1.917015097957719E-003 -7.144462206910118E-003
 -5.227447108952399E-003
 -0.431999568000000      -0.977267835838022      -0.979053770820835     
 -0.971727647547876       1.785934982812099E-003 -7.326123272959006E-003
 -5.540188290146908E-003
 -0.427999572000000      -0.974526571230860      -0.976179951088635     
 -0.968676773631544       1.653379857775472E-003 -7.503177457091281E-003
 -5.849797599315809E-003
 -0.423999576000000      -0.971631417888803      -0.973150939604170     
 -0.965475375341491       1.519521715366623E-003 -7.675564262678236E-003
 -6.156042547311613E-003
 -0.419999580000000      -0.968582832989212      -0.969967364613899     
 -0.962124138542227       1.384531624686325E-003 -7.843226071671650E-003
 -6.458694446985325E-003
 -0.415999584000000      -0.965381297938021      -0.966629877523154     
 -0.958623769405454       1.248579585133247E-003 -8.006108117699973E-003
 -6.757528532566726E-003
 -0.411999588000000      -0.962027318293716      -0.963139152677662     
 -0.954974994218491       1.111834383945465E-003 -8.164158459171178E-003
 -7.052324075225713E-003
 -0.407999592000000      -0.958521423687504      -0.959495887145058     
 -0.951178559192692       9.744634575532540E-004 -8.317327952366060E-003
 -7.342864494812806E-003
 -0.403999596000000      -0.954864167739679      -0.955700800496413     
 -0.947235230271874       8.366327567339571E-004 -8.465570224538754E-003
 -7.628937467804797E-003
 -0.399999600000000      -0.951056127972195      -0.951754634587753     
 -0.943145792940738       6.985066155585917E-004 -8.608841647014920E-003
 -7.910335031456328E-003
 -0.395999604000000      -0.947097905717473      -0.947658153341579     
 -0.938911052033290       5.602476241063359E-004 -8.747101308289040E-003
 -8.186853684182704E-003
 -0.391999608000000      -0.942990126023442      -0.943412142528388     
 -0.934531831541265       4.220165049453328E-004 -8.880310987123163E-003
 -8.458294482177831E-003
 -0.387999612000000      -0.938733437554839      -0.939017409548194     
 -0.930008974422549       2.839719933550588E-004 -9.008435125644754E-003
 -8.724463132289695E-003
 -0.383999616000000      -0.934328512490771      -0.934474783212049     
 -0.925343342409604       1.462707212774861E-004 -9.131440802444879E-003
 -8.985170081167393E-003
 -0.379999620000000      -0.929776046418580      -0.929785113523565     
 -0.920535815817888       9.067104984161745E-006 -9.249297705676951E-003
 -9.240230600692789E-003
 -0.375999624000000      -0.925076758223995      -0.924949271460433     
 -0.915587293354277      -1.274867635623345E-004 -9.361978106155466E-003
 -9.489464869717801E-003
 -0.371999628000000      -0.920231389977613      -0.919968148755944     
 -0.910498691925493      -2.632412216685420E-004 -9.469456830450973E-003
 -9.732698052119515E-003
 -0.367999632000000      -0.915240706817719      -0.914842657680513     
 -0.905270946446523      -3.980491372062023E-004 -9.571711233990365E-003
 -9.969760371196568E-003
 -0.363999636000000      -0.910105496829462      -0.909573730823193     
 -0.899905009649037      -5.317660062686969E-004 -9.668721174156958E-003
 -1.020048718042565E-002
 -0.359999640000000      -0.904826570920407      -0.904162320873206     
 -0.894401851889820      -6.642500472011648E-004 -9.760468983386006E-003
 -1.042471903058717E-002
 -0.355999644000000      -0.899404762692482      -0.898609400401452     
 -0.888762460959189      -7.953622910300551E-004 -9.846939442262781E-003
 -1.064230173329284E-002
 -0.351999648000000      -0.893840928310346      -0.892915961642041     
 -0.882987841889418      -9.249666683051050E-004 -9.928119752623088E-003
 -1.085308642092819E-002
 -0.347999652000000      -0.888135946366189      -0.887083016273806     
 -0.877079016763158      -1.052930092383386E-003 -1.000399951064823E-002
 -1.105692960303162E-002
 -0.343999656000000      -0.882290717740993      -0.881111595201827     
 -0.871037024521862      -1.179122539165411E-003 -1.007457067996542E-002
 -1.125369321913083E-002
 -0.339999660000000      -0.876306165462270      -0.875002748338954     
 -0.864862920774208      -1.303417123316386E-003 -1.013982756474596E-002
 -1.144324468806235E-002
 -0.335999664000000      -0.870183234558313      -0.868757544387323     
 -0.858557777604520      -1.425690170989813E-003 -1.019976678280288E-002
 -1.162545695379269E-002
 -0.331999668000000      -0.863922891908954      -0.862377070619879     
 -0.852122683381192      -1.545821289075100E-003 -1.025438723868721E-002
 -1.180020852776231E-002
 -0.327999672000000      -0.857526126092894      -0.855862432661899     
 -0.845558742565109      -1.663693430995594E-003 -1.030369009678966E-002
 -1.196738352778526E-002
 -0.323999676000000      -0.850993947231589      -0.849214754272510     
 -0.838867075518073      -1.779192959079023E-003 -1.034767875443665E-002
 -1.212687171351567E-002
 -0.319999680000000      -0.844327386829741      -0.842435177126212     
 -0.832048818311223      -1.892209703529102E-003 -1.038635881498906E-002
 -1.227856851851816E-002
 -0.315999684000000      -0.837527497612414      -0.835524860594396     
 -0.825105122533457      -2.002637018017395E-003 -1.041973806093976E-002
 -1.242237507895716E-002
 -0.311999688000000      -0.830595353358794      -0.828484981526869     
 -0.818037155099858      -2.110371831924418E-003 -1.044782642701159E-002
 -1.255819825893600E-002
 -0.307999692000000      -0.823532048732629      -0.821316734033371     
 -0.810846098060114      -2.215314699258397E-003 -1.047063597325726E-002
 -1.268595067251566E-002
 -0.303999696000000      -0.816338699109370      -0.814021329265097     