 VARIABLES = "X", "C1", "C2", "C3", "C4", "C5"
 ZONE I=         101 ,DATAPACKING=POINT
  -1.00000000000000       -1.00000000000000        1.00000000000000     
  -1.00000000000000        1.00000000000000       -1.00000000000000     
 -0.980000000000000      -0.980000000000000       0.920800000000000     
 -0.824768000000000       0.695745280000000      -0.538892748800000     
 -0.960000000000000      -0.960000000000000       0.843200000000000     
 -0.658943999999999       0.421972479999999      -0.151243161599998     
 -0.940000000000000      -0.940000000000000       0.767200000000000     
 -0.502336000000001       0.177191680000000       0.169215641600000     
 -0.920000000000000      -0.920000000000000       0.692800000000000     
 -0.354752000000001      -4.005631999999942E-002  0.428455628800000     
 -0.900000000000000      -0.900000000000000       0.620000000000000     
 -0.216000000000000      -0.231200000000000       0.632160000000000     
 -0.880000000000000      -0.880000000000000       0.548800000000000     
 -8.588800000000078E-002 -0.397637120000000       0.785729331200000     
 -0.860000000000000      -0.860000000000000       0.479200000000000     
  3.577599999999942E-002 -0.540734719999999       0.894287718400000     
 -0.840000000000000      -0.840000000000000       0.411200000000000     
  0.149184000000000      -0.661829120000000       0.962688921600000     
 -0.820000000000000      -0.820000000000000       0.344800000000000     
  0.254527999999999      -0.762225920000000       0.995522508800000     
 -0.800000000000000      -0.800000000000000       0.280000000000000     
  0.352000000000000      -0.843200000000000       0.997120000000000     
 -0.780000000000000      -0.780000000000000       0.216800000000000     
  0.441792000000001      -0.905995520000000       0.971561011200000     
 -0.760000000000000      -0.760000000000000       0.155200000000000     
  0.524096000000000      -0.951825920000000       0.922679398400000     
 -0.740000000000000      -0.740000000000000       9.519999999999959E-002
  0.599104000000000      -0.981873920000000       0.854069401599999     
 -0.720000000000000      -0.720000000000000       3.679999999999960E-002
  0.667008000000001      -0.997291520000000       0.769091788800000     
 -0.700000000000000      -0.700000000000000      -2.000000000000054E-002
  0.728000000000000      -0.999200000000000       0.670879999999999     
 -0.680000000000000      -0.680000000000000      -7.520000000000042E-002
  0.782272000000001      -0.988689920000000       0.562346291199999     
 -0.660000000000000      -0.660000000000000      -0.128800000000000     
  0.830016000000000      -0.966821120000000       0.446187878400000     
 -0.640000000000000      -0.640000000000000      -0.180800000000000     
  0.871424000000000      -0.934622720000000       0.324893081600001     
 -0.620000000000000      -0.620000000000000      -0.231200000000000     
  0.906688000000000      -0.893093120000000       0.200747468799999     
 -0.600000000000000      -0.600000000000000      -0.280000000000000     
  0.936000000000000      -0.843200000000000       7.583999999999906E-002
 -0.580000000000000      -0.580000000000000      -0.327200000000000     
  0.959552000000000      -0.785880320000000      -4.793082879999953E-002
 -0.560000000000000      -0.560000000000000      -0.372800000000000     
  0.977536000000000      -0.722040320000000      -0.168850841600001     
 -0.540000000000000      -0.540000000000000      -0.416800000000000     
  0.990144000000000      -0.652555520000000      -0.285384038399999     
 -0.520000000000000      -0.520000000000000      -0.459200000000000     
  0.997568000000000      -0.578270720000000      -0.396166451200000     
 -0.500000000000000      -0.500000000000000      -0.500000000000000     
   1.00000000000000      -0.500000000000001      -0.499999999999998     
 -0.480000000000000      -0.480000000000000      -0.539200000000000     
  0.997632000000000      -0.418526720000000      -0.595846348800001     
 -0.460000000000000      -0.460000000000000      -0.576800000000000     
  0.990656000000000      -0.334603520000000      -0.682820761600000     
 -0.440000000000000      -0.440000000000000      -0.612800000000000     
  0.979264000000000      -0.248952319999999      -0.760185958400001     
 -0.420000000000000      -0.420000000000000      -0.647200000000000     
  0.963648000000000      -0.162264320000000      -0.827345971200000     
 -0.400000000000000      -0.400000000000000      -0.680000000000000     
  0.944000000000000      -7.519999999999993E-002 -0.883840000000000     
 -0.380000000000000      -0.380000000000000      -0.711200000000000     
  0.920512000000000       1.161087999999959E-002 -0.929336268800000     
 -0.360000000000000      -0.360000000000000      -0.740800000000000     
  0.893376000000000       9.756927999999966E-002 -0.963625881600000     
 -0.340000000000000      -0.340000000000000      -0.768800000000000     
  0.862784000000000       0.182106880000000      -0.986616678400000     
 -0.320000000000000      -0.320000000000000      -0.795200000000000     
  0.828928000000000       0.264686080000000      -0.998327091200000     
 -0.300000000000000      -0.300000000000000      -0.820000000000000     
  0.792000000000000       0.344800000000000      -0.998880000000000     
 -0.280000000000000      -0.280000000000000      -0.843200000000000     
  0.752192000000000       0.421972480000000      -0.988496588800000     
 -0.260000000000000      -0.260000000000000      -0.864800000000000     
  0.709696000000000       0.495758080000000      -0.967490201600000     
 -0.240000000000000      -0.240000000000000      -0.884800000000000     
  0.664704000000000       0.565742080000000      -0.936260198400000     
 -0.220000000000000      -0.220000000000000      -0.903200000000000     
  0.617408000000000       0.631540480000000      -0.895285811200000     
 -0.200000000000000      -0.200000000000000      -0.920000000000000     
  0.568000000000000       0.692800000000000      -0.845120000000000     
 -0.180000000000000      -0.180000000000000      -0.935200000000000     
  0.516672000000000       0.749198080000000      -0.786383308800000     
 -0.160000000000000      -0.160000000000000      -0.948800000000000     
  0.463616000000000       0.800442880000000      -0.719757721600001     
 -0.140000000000000      -0.140000000000000      -0.960800000000000     
  0.409024000000000       0.846273280000000      -0.645980518400000     
 -0.120000000000000      -0.120000000000000      -0.971200000000000     
  0.353088000000000       0.886458880000000      -0.565838131200001     
 -0.100000000000000      -0.100000000000000      -0.980000000000000     
  0.296000000000000       0.920800000000000      -0.480159999999999     
 -7.999999999999996E-002 -7.999999999999999E-002 -0.987200000000000     
  0.237952000000000       0.949127680000000      -0.389812428800001     
 -6.000000000000005E-002 -6.000000000000011E-002 -0.992800000000000     
  0.179136000000000       0.971303680000000      -0.295692441600001     
 -4.000000000000004E-002 -3.999999999999999E-002 -0.996800000000000     
  0.119744000000000       0.987220480000000      -0.198721638400000     
 -2.000000000000002E-002 -2.000000000000007E-002 -0.999200000000000     
  5.996799999999999E-002  0.996801280000000      -9.984005120000057E-002
  0.000000000000000E+000  6.123233995736766E-017  -1.00000000000000     
 -1.836970198721030E-016   1.00000000000000       3.061616997868383E-016
  2.000000000000002E-002  1.999999999999997E-002 -0.999200000000000     
 -5.996800000000035E-002  0.996801280000000       9.984005119999941E-002
  4.000000000000004E-002  4.000000000000010E-002 -0.996800000000000     
 -0.119744000000000       0.987220480000000       0.198721638400001     
  6.000000000000005E-002  6.000000000000001E-002 -0.992800000000000     
 -0.179136000000000       0.971303680000000       0.295692441600000     
  8.000000000000007E-002  8.000000000000011E-002 -0.987200000000000     
 -0.237952000000001       0.949127680000000       0.389812428800000     
  0.100000000000000       0.100000000000000      -0.980000000000000     
 -0.296000000000000       0.920800000000000       0.480160000000000     
  0.120000000000000       0.120000000000000      -0.971200000000000     
 -0.353088000000001       0.886458880000000       0.565838131200001     
  0.140000000000000       0.140000000000000      -0.960800000000000     
 -0.409024000000000       0.846273280000000       0.645980518400000     
  0.160000000000000       0.160000000000000      -0.948800000000000     
 -0.463616000000000       0.800442880000000       0.719757721600000     
  0.180000000000000       0.180000000000000      -0.935200000000000     
 -0.516672000000000       0.749198080000000       0.786383308800000     
  0.200000000000000       0.200000000000000      -0.920000000000000     
 -0.568000000000000       0.692800000000000       0.845120000000000     
  0.220000000000000       0.220000000000000      -0.903200000000000     
 -0.617408000000000       0.631540480000000       0.895285811200000     
  0.240000000000000       0.240000000000000      -0.884800000000000     
 -0.664704000000000       0.565742080000000       0.936260198400000     
  0.260000000000000       0.260000000000000      -0.864800000000000     
 -0.709696000000000       0.495758080000000       0.967490201600000     
  0.280000000000000       0.280000000000000      -0.843200000000000     
 -0.752192000000000       0.421972480000000       0.988496588800000     
  0.300000000000000       0.300000000000000      -0.820000000000000     
 -0.792000000000000       0.344799999999999       0.998880000000000     
  0.320000000000000       0.320000000000000      -0.795200000000000     
 -0.828928000000000       0.264686080000000       0.998327091200000     
  0.340000000000000       0.340000000000000      -0.768800000000000     
 -0.862784000000000       0.182106880000000       0.986616678400000     
  0.360000000000000       0.360000000000000      -0.740800000000000     
 -0.893376000000000       9.756927999999918E-002  0.963625881600000     
  0.380000000000000       0.380000000000000      -0.711200000000000     
 -0.920512000000000       1.161088000000087E-002  0.929336268800000     
  0.400000000000000       0.400000000000000      -0.680000000000000     
 -0.944000000000000      -7.519999999999953E-002  0.883840000000000     
  0.420000000000000       0.420000000000000      -0.647200000000000     
 -0.963648000000000      -0.162264319999999       0.827345971200000     
  0.440000000000000       0.440000000000000      -0.612800000000000     
 -0.979264000000000      -0.248952320000000       0.760185958400000     
  0.460000000000000       0.460000000000000      -0.576800000000000     
 -0.990656000000000      -0.334603520000000       0.682820761600000     
  0.480000000000000       0.480000000000000      -0.539200000000000     
 -0.997632000000000      -0.418526720000000       0.595846348800000     
  0.500000000000000       0.500000000000000      -0.500000000000000     
  -1.00000000000000      -0.500000000000000       0.500000000000001     
  0.520000000000000       0.520000000000000      -0.459200000000000     
 -0.997568000000000      -0.578270720000000       0.396166451200000     
  0.540000000000000       0.540000000000000      -0.416800000000000     
 -0.990144000000000      -0.652555520000000       0.285384038400000     
  0.560000000000000       0.560000000000000      -0.372800000000000     
 -0.977536000000000      -0.722040320000000       0.168850841600000     
  0.580000000000000       0.580000000000000      -0.327200000000000     
 -0.959552000000000      -0.785880320000000       4.793082879999980E-002
  0.600000000000000       0.600000000000000      -0.280000000000000     
 -0.936000000000000      -0.843200000000000      -7.584000000000056E-002
  0.620000000000000       0.620000000000000      -0.231200000000000     
 -0.906688000000000      -0.893093120000000      -0.200747468800001     
  0.640000000000000       0.640000000000000      -0.180800000000000     
 -0.871424000000000      -0.934622720000000      -0.324893081600000     
  0.660000000000000       0.660000000000000      -0.128800000000000     
 -0.830016000000000      -0.966821120000000      -0.446187878400000     
  0.680000000000000       0.680000000000000      -7.520000000000017E-002
 -0.782272000000000      -0.988689920000000      -0.562346291200000     
  0.700000000000000       0.700000000000000      -2.000000000000007E-002
 -0.728000000000000      -0.999200000000000      -0.670880000000000     
  0.720000000000000       0.720000000000000       3.679999999999984E-002
 -0.667008000000000      -0.997291520000000      -0.769091788800000     
  0.740000000000000       0.740000000000000       9.520000000000005E-002
 -0.599104000000000      -0.981873920000000      -0.854069401600000     
  0.760000000000000       0.760000000000000       0.155200000000000     
 -0.524096000000000      -0.951825920000000      -0.922679398400000     
  0.780000000000000       0.780000000000000       0.216800000000000     
 -0.441792000000000      -0.905995520000000      -0.971561011200000     
  0.800000000000000       0.800000000000000       0.280000000000000     
 -0.352000000000000      -0.843200000000000      -0.997120000000000     
  0.820000000000000       0.820000000000000       0.344800000000000     
 -0.254528000000000      -0.762225920000000      -0.995522508800000     
  0.840000000000000       0.840000000000000       0.411200000000000     
 -0.149183999999999      -0.661829119999999      -0.962688921600000     
  0.860000000000000       0.860000000000000       0.479200000000000     
 -3.577599999999950E-002 -0.540734719999999      -0.894287718400000     
  0.880000000000000       0.880000000000000       0.548800000000000     
  8.588799999999938E-002 -0.397637120000001      -0.785729331200001     
  0.900000000000000       0.900000000000000       0.620000000000000     
  0.215999999999999      -0.231200000000001      -0.632160000000001     
  0.920000000000000       0.920000000000000       0.692800000000000     
  0.354752000000000      -4.005632000000071E-002 -0.428455628800001     
  0.940000000000000       0.940000000000000       0.767200000000000     
  0.502336000000000       0.177191679999999      -0.169215641600001     
  0.960000000000000       0.960000000000000       0.843200000000000     
  0.658944000000000       0.421972479999999       0.151243161599999     
  0.980000000000000       0.980000000000000       0.920800000000000     
  0.824768000000000       0.695745280000000       0.538892748800000     
   1.00000000000000        1.00000000000000        1.00000000000000     
   1.00000000000000        1.00000000000000        1.00000000000000     
