 VARIABLES = "X", "U1", "U2", "U3", "U4", "U5" 
 ZONE I=         101 ,DATAPACKING=POINT
  -1.00000000000000        1.00000000000000       -2.00000000000000     
   4.38076909102474       -4.00000000000000        3.61923090897526     
 -0.980000000000000        1.00000000000000       -1.96000000000000     
   2.84160000000000       -3.60953600000000        4.23309056000000     
 -0.960000000000000        1.00000000000000       -1.92000000000000     
   2.68640000000000       -3.23788800000000        3.53034496000000     
 -0.940000000000000        1.00000000000000       -1.88000000000000     
   2.53440000000000       -2.88467200000000        2.88878336000000     
 -0.920000000000000        1.00000000000000       -1.84000000000000     
   2.38560000000000       -2.54950400000000        2.30548736000000     
 -0.900000000000000        1.00000000000000       -1.80000000000000     
   2.24000000000000       -2.23200000000000        1.77760000000001     
 -0.880000000000000        1.00000000000000       -1.76000000000000     
   2.09760000000000       -1.93177600000000        1.30232576000001     
 -0.860000000000000        1.00000000000000       -1.72000000000000     
   1.95840000000000       -1.64844800000000       0.876930560000000     
 -0.840000000000000        1.00000000000000       -1.68000000000000     
   1.82240000000000       -1.38163200000000       0.498741760000002     
 -0.820000000000000        1.00000000000000       -1.64000000000000     
   1.68960000000000       -1.13094400000000       0.165148160000001     
 -0.800000000000000        1.00000000000000       -1.60000000000000     
   1.56000000000000      -0.896000000000003      -0.126399999999997     
 -0.780000000000000        1.00000000000000       -1.56000000000000     
   1.43360000000000      -0.676416000000002      -0.378391039999997     
 -0.760000000000000        1.00000000000000       -1.52000000000000     
   1.31040000000000      -0.471808000000003      -0.593251839999997     
 -0.740000000000000        1.00000000000000       -1.48000000000000     
   1.19040000000000      -0.281792000000001      -0.773347839999997     
 -0.720000000000000        1.00000000000000       -1.44000000000000     
   1.07360000000000      -0.105984000000001      -0.920983039999999     
 -0.700000000000000        1.00000000000000       -1.40000000000000     
  0.960000000000001       5.599999999999904E-002  -1.03840000000000     
 -0.680000000000000        1.00000000000000       -1.36000000000000     
  0.849600000000001       0.204543999999999       -1.12777984000000     
 -0.660000000000000        1.00000000000000       -1.32000000000000     
  0.742400000000001       0.340031999999999       -1.19124224000000     
 -0.640000000000000        1.00000000000000       -1.28000000000000     
  0.638400000000002       0.462847999999998       -1.23084544000000     
 -0.620000000000000        1.00000000000000       -1.24000000000000     
  0.537600000000001       0.573375999999998       -1.24858624000000     
 -0.600000000000000        1.00000000000000       -1.20000000000000     
  0.440000000000002       0.671999999999999       -1.24640000000000     
 -0.580000000000000        1.00000000000000       -1.16000000000000     
  0.345600000000001       0.759104000000000       -1.22616064000000     
 -0.560000000000000        1.00000000000000       -1.12000000000000     
  0.254400000000002       0.835071999999999       -1.18968064000000     
 -0.540000000000000        1.00000000000000       -1.08000000000000     
  0.166400000000003       0.900287999999999       -1.13871104000000     
 -0.520000000000000        1.00000000000000       -1.04000000000000     
  8.160000000000235E-002  0.955135999999999       -1.07494144000000     
 -0.500000000000000        1.00000000000000       -1.00000000000000     
  7.427600357445924E-016  0.999999999999999       -1.00000000000000     
 -0.480000000000000        1.00000000000000      -0.960000000000000     
 -7.839999999999976E-002   1.03526400000000      -0.915453439999999     
 -0.460000000000000        1.00000000000000      -0.920000000000001     
 -0.153599999999998        1.06131200000000      -0.822807040000001     
 -0.440000000000000        1.00000000000000      -0.880000000000000     
 -0.225600000000000        1.07852800000000      -0.723504639999999     
 -0.420000000000000        1.00000000000000      -0.840000000000000     
 -0.294400000000000        1.08729600000000      -0.618928640000000     
 -0.400000000000000        1.00000000000000      -0.800000000000000     
 -0.360000000000000        1.08800000000000      -0.510400000000001     
 -0.380000000000000        1.00000000000000      -0.760000000000000     
 -0.422400000000000        1.08102400000000      -0.399178240000001     
 -0.360000000000000        1.00000000000000      -0.720000000000000     
 -0.481599999999999        1.06675200000000      -0.286461440000000     
 -0.340000000000000        1.00000000000000      -0.680000000000000     
 -0.537600000000000        1.04556800000000      -0.173386240000000     
 -0.320000000000000        1.00000000000000      -0.640000000000000     
 -0.590400000000000        1.01785600000000      -6.102784000000074E-002
 -0.300000000000000        1.00000000000000      -0.600000000000000     
 -0.639999999999999       0.984000000000000       4.959999999999809E-002
 -0.280000000000000        1.00000000000000      -0.560000000000000     
 -0.686400000000000       0.944384000000000       0.157544959999999     
 -0.260000000000000        1.00000000000000      -0.520000000000000     
 -0.729600000000000       0.899392000000000       0.261916160000001     
 -0.240000000000000        1.00000000000000      -0.480000000000000     
 -0.769600000000000       0.849408000000000       0.361884159999999     
 -0.220000000000000        1.00000000000000      -0.440000000000000     
 -0.806400000000000       0.794816000000000       0.456680960000000     
 -0.200000000000000        1.00000000000000      -0.400000000000000     
 -0.839999999999999       0.736000000000001       0.545599999999998     
 -0.180000000000000        1.00000000000000      -0.360000000000000     
 -0.870400000000000       0.673344000000001       0.627996159999999     
 -0.160000000000000        1.00000000000000      -0.320000000000000     
 -0.897600000000000       0.607232000000000       0.703285760000000     
 -0.140000000000000        1.00000000000000      -0.280000000000000     
 -0.921600000000000       0.538048000000000       0.770946560000000     
 -0.120000000000000        1.00000000000000      -0.240000000000000     
 -0.942400000000000       0.466176000000000       0.830517759999999     
 -0.100000000000000        1.00000000000000      -0.200000000000000     
 -0.960000000000000       0.392000000000000       0.881600000000000     
 -7.999999999999996E-002   1.00000000000000      -0.160000000000000     
 -0.974400000000000       0.315904000000001       0.923855360000000     
 -6.000000000000005E-002   1.00000000000000      -0.120000000000001     
 -0.985600000000000       0.238272000000001       0.957007360000000     
 -4.000000000000004E-002   1.00000000000000      -8.000000000000040E-002
 -0.993600000000000       0.159488000000001       0.980840960000000     
 -2.000000000000002E-002   1.00000000000000      -4.000000000000058E-002
 -0.998400000000000       7.993600000000116E-002  0.995202560000000     
  0.000000000000000E+000   1.00000000000000      -3.216245299353273E-016
  -1.00000000000000       6.432490598706546E-016   1.00000000000000     
  2.000000000000002E-002   1.00000000000000       3.999999999999995E-002
 -0.998400000000000      -7.993599999999990E-002  0.995202560000000     
  4.000000000000004E-002   1.00000000000000       7.999999999999978E-002
 -0.993600000000000      -0.159488000000000       0.980840960000000     
  6.000000000000005E-002   1.00000000000000       0.120000000000000     
 -0.985600000000000      -0.238272000000000       0.957007360000000     
  8.000000000000007E-002   1.00000000000000       0.160000000000000     
 -0.974400000000000      -0.315904000000000       0.923855360000000     
  0.100000000000000        1.00000000000000       0.200000000000000     
 -0.960000000000000      -0.392000000000000       0.881600000000000     
  0.120000000000000        1.00000000000000       0.240000000000000     
 -0.942400000000000      -0.466176000000000       0.830517760000000     
  0.140000000000000        1.00000000000000       0.280000000000000     
 -0.921600000000000      -0.538047999999999       0.770946560000000     
  0.160000000000000        1.00000000000000       0.320000000000000     
 -0.897600000000000      -0.607231999999999       0.703285760000001     
  0.180000000000000        1.00000000000000       0.360000000000000     
 -0.870400000000000      -0.673344000000000       0.627996160000001     
  0.200000000000000        1.00000000000000       0.400000000000000     
 -0.840000000000000      -0.736000000000000       0.545600000000000     
  0.220000000000000        1.00000000000000       0.440000000000000     
 -0.806400000000000      -0.794816000000000       0.456680960000001     
  0.240000000000000        1.00000000000000       0.480000000000000     
 -0.769600000000001      -0.849408000000000       0.361884160000001     
  0.260000000000000        1.00000000000000       0.519999999999999     
 -0.729600000000000      -0.899391999999999       0.261916160000002     
  0.280000000000000        1.00000000000000       0.560000000000000     
 -0.686400000000000      -0.944384000000000       0.157544960000000     
  0.300000000000000        1.00000000000000       0.600000000000000     
 -0.640000000000000      -0.984000000000000       4.960000000000024E-002
  0.320000000000000        1.00000000000000       0.640000000000000     
 -0.590400000000000       -1.01785600000000      -6.102783999999951E-002
  0.340000000000000        1.00000000000000       0.680000000000000     
 -0.537600000000000       -1.04556800000000      -0.173386239999999     
  0.360000000000000        1.00000000000000       0.720000000000000     
 -0.481600000000001       -1.06675200000000      -0.286461439999999     
  0.380000000000000        1.00000000000000       0.760000000000000     
 -0.422400000000001       -1.08102400000000      -0.399178239999999     
  0.400000000000000        1.00000000000000       0.800000000000000     
 -0.360000000000000       -1.08800000000000      -0.510399999999999     
  0.420000000000000        1.00000000000000       0.840000000000000     
 -0.294400000000001       -1.08729600000000      -0.618928639999999     
  0.440000000000000        1.00000000000000       0.879999999999999     
 -0.225600000000001       -1.07852800000000      -0.723504639999999     
  0.460000000000000        1.00000000000000       0.920000000000000     
 -0.153600000000000       -1.06131200000000      -0.822807040000000     
  0.480000000000000        1.00000000000000       0.959999999999999     
 -7.840000000000136E-002  -1.03526400000000      -0.915453439999999     
  0.500000000000000        1.00000000000000        1.00000000000000     
  1.414100318299876E-016  -1.00000000000000       -1.00000000000000     
  0.520000000000000        1.00000000000000        1.04000000000000     
  8.160000000000070E-002 -0.955135999999999       -1.07494144000000     
  0.540000000000000        1.00000000000000        1.08000000000000     
  0.166400000000001      -0.900287999999999       -1.13871104000000     
  0.560000000000000        1.00000000000000        1.12000000000000     
  0.254400000000000      -0.835072000000000       -1.18968064000000     
  0.580000000000000        1.00000000000000        1.16000000000000     
  0.345600000000000      -0.759104000000000       -1.22616064000000     
  0.600000000000000        1.00000000000000        1.20000000000000     
  0.440000000000001      -0.671999999999999       -1.24640000000000     
  0.620000000000000        1.00000000000000        1.24000000000000     
  0.537600000000002      -0.573375999999999       -1.24858624000000     
  0.640000000000000        1.00000000000000        1.28000000000000     
  0.638400000000000      -0.462848000000000       -1.23084544000000     
  0.660000000000000        1.00000000000000        1.32000000000000     
  0.742399999999999      -0.340032000000001       -1.19124224000000     
  0.680000000000000        1.00000000000000        1.36000000000000     
  0.849599999999999      -0.204544000000002       -1.12777984000000     
  0.700000000000000        1.00000000000000        1.40000000000000     
  0.959999999999999      -5.600000000000081E-002  -1.03840000000000     
  0.720000000000000        1.00000000000000        1.44000000000000     
   1.07360000000000       0.105984000000000      -0.920983040000000     
  0.740000000000000        1.00000000000000        1.48000000000000     
   1.19040000000000       0.281792000000001      -0.773347839999999     
  0.760000000000000        1.00000000000000        1.52000000000000     
   1.31040000000000       0.471808000000001      -0.593251839999999     
  0.780000000000000        1.00000000000000        1.56000000000000     
   1.43360000000000       0.676416000000000      -0.378391040000000     
  0.800000000000000        1.00000000000000        1.60000000000000     
   1.56000000000000       0.896000000000000      -0.126400000000000     
  0.820000000000000        1.00000000000000        1.64000000000000     
   1.68960000000000        1.13094400000000       0.165148160000000     
  0.840000000000000        1.00000000000000        1.68000000000000     
   1.82240000000000        1.38163200000000       0.498741760000001     
  0.860000000000000        1.00000000000000        1.72000000000000     
   1.95840000000000        1.64844800000000       0.876930560000003     
  0.880000000000000        1.00000000000000        1.76000000000000     
   2.09760000000000        1.93177600000000        1.30232576000000     
  0.900000000000000        1.00000000000000        1.80000000000000     
   2.24000000000000        2.23200000000000        1.77760000000000     
  0.920000000000000        1.00000000000000        1.84000000000000     
   2.38560000000000        2.54950400000000        2.30548736000000     
  0.940000000000000        1.00000000000000        1.88000000000000     
   2.53440000000000        2.88467200000000        2.88878336000000     
  0.960000000000000        1.00000000000000        1.92000000000000     
   2.68640000000000        3.23788800000000        3.53034496000000     
  0.980000000000000        1.00000000000000        1.96000000000000     
   2.84160000000000        3.60953600000000        4.23309056000000     
   1.00000000000000        1.00000000000000        2.00000000000000     
   3.00000000000000        4.00000000000000        5.00000000000000     
