 VARIABLES = "X", "Y", "Error Uxx" 
 ZONE I=          16 , J=          21 ,DATAPACKING=POINT
  -1.00000000000000       -1.00000000000000       2.952436347661058E-017
  -1.00000000000000      -0.955162973124140       3.384692728163446E-002
  -1.00000000000000      -0.848039647510822       0.110771013173739     
  -1.00000000000000      -0.741262543272473       0.175087229452028     
  -1.00000000000000      -0.635605065171759       0.219536425137046     
  -1.00000000000000      -0.529610856542781       0.240042338299782     
  -1.00000000000000      -0.423704436434061       0.234192524618012     
  -1.00000000000000      -0.317774315082929       0.202646346354078     
  -1.00000000000000      -0.211850529508475       0.148867483755590     
  -1.00000000000000      -0.105925053478478       7.875406268976676E-002
  -1.00000000000000      -9.663058790326291E-019  7.318704056128211E-019
  -1.00000000000000       0.105925053478478      -7.875406268976676E-002
  -1.00000000000000       0.211850529508475      -0.148867483755590     
  -1.00000000000000       0.317774315082929      -0.202646346354078     
  -1.00000000000000       0.423704436434061      -0.234192524618012     
  -1.00000000000000       0.529610856542781      -0.240042338299782     
  -1.00000000000000       0.635605065171759      -0.219536425137046     
  -1.00000000000000       0.741262543272473      -0.175087229452028     
  -1.00000000000000       0.848039647510822      -0.110771013173739     
  -1.00000000000000       0.955162973124140      -3.384692728163446E-002
  -1.00000000000000        1.00000000000000      -2.952436347661058E-017
 -0.939012774789986       -1.00000000000000      -4.583916746058415E-016
 -0.939012774789986      -0.955162973124140      -0.525503274242739     
 -0.939012774789986      -0.848039647510822       -1.71981727114040     
 -0.939012774789986      -0.741262543272473       -2.71838301862794     
 -0.939012774789986      -0.635605065171759       -3.40849582194340     
 -0.939012774789986      -0.529610856542781       -3.72686813440337     
 -0.939012774789986      -0.423704436434061       -3.63604463902715     
 -0.939012774789986      -0.317774315082929       -3.14626251406169     
 -0.939012774789986      -0.211850529508475       -2.31129843754752     
 -0.939012774789986      -0.105925053478478       -1.22272599397354     
 -0.939012774789986      -9.663058790326291E-019 -1.136293085841118E-017
 -0.939012774789986       0.105925053478478        1.22272599397354     
 -0.939012774789986       0.211850529508475        2.31129843754752     
 -0.939012774789986       0.317774315082929        3.14626251406169     
 -0.939012774789986       0.423704436434061        3.63604463902715     
 -0.939012774789986       0.529610856542781        3.72686813440337     
 -0.939012774789986       0.635605065171759        3.40849582194340     
 -0.939012774789986       0.741262543272473        2.71838301862794     
 -0.939012774789986       0.848039647510822        1.71981727114040     
 -0.939012774789986       0.955162973124140       0.525503274242739     
 -0.939012774789986        1.00000000000000       4.583916746058415E-016
 -0.793303864140475       -1.00000000000000      -1.462259184356879E-015
 -0.793303864140475      -0.955162973124140       -1.67634368541227     
 -0.793303864140475      -0.848039647510822       -5.48617860981670     
 -0.793303864140475      -0.741262543272473       -8.67158099894912     
 -0.793303864140475      -0.635605065171759       -10.8730253985622     
 -0.793303864140475      -0.529610856542781       -11.8886259509498     
 -0.793303864140475      -0.423704436434061       -11.5989010330976     
 -0.793303864140475      -0.317774315082929       -10.0365070145317     
 -0.793303864140475      -0.211850529508475       -7.37299029481654     
 -0.793303864140475      -0.105925053478478       -3.90046855928852     
 -0.793303864140475      -9.663058790326291E-019 -3.624749516493982E-017
 -0.793303864140475       0.105925053478478        3.90046855928852     
 -0.793303864140475       0.211850529508475        7.37299029481654     
 -0.793303864140475       0.317774315082929        10.0365070145317     
 -0.793303864140475       0.423704436434061        11.5989010330976     
 -0.793303864140475       0.529610856542781        11.8886259509498     
 -0.793303864140475       0.635605065171759        10.8730253985622     
 -0.793303864140475       0.741262543272473        8.67158099894912     
 -0.793303864140475       0.848039647510822        5.48617860981670     
 -0.793303864140475       0.955162973124140        1.67634368541227     
 -0.793303864140475        1.00000000000000       1.462259184356879E-015
 -0.648065878915366       -1.00000000000000      -2.159954704300222E-015
 -0.648065878915366      -0.955162973124140       -2.47618648462973     
 -0.648065878915366      -0.848039647510822       -8.10382825676460     
 -0.648065878915366      -0.741262543272473       -12.8090986692201     
 -0.648065878915366      -0.635605065171759       -16.0609299711319     
 -0.648065878915366      -0.529610856542781       -17.5611094292518     
 -0.648065878915366      -0.423704436434061       -17.1331465168199     
 -0.648065878915366      -0.317774315082929       -14.8252791110452     
 -0.648065878915366      -0.211850529508475       -10.8909044596311     
 -0.648065878915366      -0.105925053478478       -5.76151991639957     
 -0.648065878915366      -9.663058790326291E-019 -5.354245576856863E-017
 -0.648065878915366       0.105925053478478        5.76151991639957     
 -0.648065878915366       0.211850529508475        10.8909044596311     
 -0.648065878915366       0.317774315082929        14.8252791110452     
 -0.648065878915366       0.423704436434061        17.1331465168199     
 -0.648065878915366       0.529610856542781        17.5611094292518     
 -0.648065878915366       0.635605065171759        16.0609299711319     
 -0.648065878915366       0.741262543272473        12.8090986692201     
 -0.648065878915366       0.848039647510822        8.10382825676460     
 -0.648065878915366       0.955162973124140        2.47618648462973     
 -0.648065878915366        1.00000000000000       2.159954704300222E-015
 -0.504350818728616       -1.00000000000000      -2.416576210451354E-015
 -0.504350818728616      -0.955162973124140       -2.77037909150786     
 -0.504350818728616      -0.848039647510822       -9.06663391592994     
 -0.504350818728616      -0.741262543272473       -14.3309315976558     
 -0.504350818728616      -0.635605065171759       -17.9691088932056     
 -0.504350818728616      -0.529610856542781       -19.6475227889614     
 -0.504350818728616      -0.423704436434061       -19.1687141402987     
 -0.504350818728616      -0.317774315082929       -16.5866519060455     
 -0.504350818728616      -0.211850529508475       -12.1848391427124     
 -0.504350818728616      -0.105925053478478       -6.44603886289536     
 -0.504350818728616      -9.663058790326291E-019 -5.990376770488166E-017
 -0.504350818728616       0.105925053478478        6.44603886289536     
 -0.504350818728616       0.211850529508475        12.1848391427124     
 -0.504350818728616       0.317774315082929        16.5866519060455     
 -0.504350818728616       0.423704436434061        19.1687141402987     
 -0.504350818728616       0.529610856542781        19.6475227889614     
 -0.504350818728616       0.635605065171759        17.9691088932056     
 -0.504350818728616       0.741262543272473        14.3309315976558     
 -0.504350818728616       0.848039647510822        9.06663391592994     
 -0.504350818728616       0.955162973124140        2.77037909150786     
 -0.504350818728616        1.00000000000000       2.416576210451354E-015
 -0.360177693863957       -1.00000000000000      -2.187363756489942E-015
 -0.360177693863957      -0.955162973124140       -2.50760840493833     
 -0.360177693863957      -0.848039647510822       -8.20666293713266     
 -0.360177693863957      -0.741262543272473       -12.9716415471929     
 -0.360177693863957      -0.635605065171759       -16.2647374245557     
 -0.360177693863957      -0.529610856542781       -17.7839536231127     
 -0.360177693863957      -0.423704436434061       -17.3505600144820     
 -0.360177693863957      -0.317774315082929       -15.0134065972711     
 -0.360177693863957      -0.211850529508475       -11.0291061395705     
 -0.360177693863957      -0.105925053478478       -5.83463154219724     
 -0.360177693863957      -9.663058790326291E-019 -5.422189037041687E-017
 -0.360177693863957       0.105925053478478        5.83463154219724     
 -0.360177693863957       0.211850529508475        11.0291061395705     
 -0.360177693863957       0.317774315082929        15.0134065972711     
 -0.360177693863957       0.423704436434061        17.3505600144820     
 -0.360177693863957       0.529610856542781        17.7839536231127     
 -0.360177693863957       0.635605065171759        16.2647374245557     
 -0.360177693863957       0.741262543272473        12.9716415471929     
 -0.360177693863957       0.848039647510822        8.20666293713266     
 -0.360177693863957       0.955162973124140        2.50760840493833     
 -0.360177693863957        1.00000000000000       2.187363756489942E-015
 -0.216124144913340       -1.00000000000000      -1.517738916456652E-015
 -0.216124144913340      -0.955162973124140       -1.73994602046255     
 -0.216124144913340      -0.848039647510822       -5.69433029918907     
 -0.216124144913340      -0.741262543272473       -9.00059038104085     
 -0.216124144913340      -0.635605065171759       -11.2855600180603     
 -0.216124144913340      -0.529610856542781       -12.3396935796228     
 -0.216124144913340      -0.423704436434061       -12.0389761776768     
 -0.216124144913340      -0.317774315082929       -10.4173032005571     
 -0.216124144913340      -0.211850529508475       -7.65272970812073     
 -0.216124144913340      -0.105925053478478       -4.04845665404486     
 -0.216124144913340      -9.663058790326291E-019 -3.762276525559974E-017
 -0.216124144913340       0.105925053478478        4.04845665404486     
 -0.216124144913340       0.211850529508475        7.65272970812073     
 -0.216124144913340       0.317774315082929        10.4173032005571     
 -0.216124144913340       0.423704436434061        12.0389761776768     
 -0.216124144913340       0.529610856542781        12.3396935796228     
 -0.216124144913340       0.635605065171759        11.2855600180603     
 -0.216124144913340       0.741262543272473        9.00059038104085     
 -0.216124144913340       0.848039647510822        5.69433029918907     
 -0.216124144913340       0.955162973124140        1.73994602046255     
 -0.216124144913340        1.00000000000000       1.517738916456652E-015
 -7.203773751479320E-002  -1.00000000000000      -5.422976050475786E-016
 -7.203773751479320E-002 -0.955162973124140      -0.621693592737138     
 -7.203773751479320E-002 -0.848039647510822       -2.03461982170785     
 -7.203773751479320E-002 -0.741262543272473       -3.21596722251018     
 -7.203773751479320E-002 -0.635605065171759       -4.03240116139540     
 -7.203773751479320E-002 -0.529610856542781       -4.40904967428338     
 -7.203773751479320E-002 -0.423704436434061       -4.30160146622651     
 -7.203773751479320E-002 -0.317774315082929       -3.72216757141968     
 -7.203773751479320E-002 -0.211850529508475       -2.73436817610182     
 -7.203773751479320E-002 -0.105925053478478       -1.44653887689264     
 -7.203773751479320E-002 -9.663058790326291E-019 -1.344284927542853E-017
 -7.203773751479320E-002  0.105925053478478        1.44653887689264     
 -7.203773751479320E-002  0.211850529508475        2.73436817610182     
 -7.203773751479320E-002  0.317774315082929        3.72216757141968     
 -7.203773751479320E-002  0.423704436434061        4.30160146622651     
 -7.203773751479320E-002  0.529610856542781        4.40904967428338     
 -7.203773751479320E-002  0.635605065171759        4.03240116139540     
 -7.203773751479320E-002  0.741262543272473        3.21596722251018     
 -7.203773751479320E-002  0.848039647510822        2.03461982170785     
 -7.203773751479320E-002  0.955162973124140       0.621693592737138     
 -7.203773751479320E-002   1.00000000000000       5.422976050475786E-016
  7.203773751479320E-002  -1.00000000000000       5.422976050475792E-016
  7.203773751479320E-002 -0.955162973124140       0.621693592737139     
  7.203773751479320E-002 -0.848039647510822        2.03461982170785     
  7.203773751479320E-002 -0.741262543272473        3.21596722251019     
  7.203773751479320E-002 -0.635605065171759        4.03240116139541     
  7.203773751479320E-002 -0.529610856542781        4.40904967428339     
  7.203773751479320E-002 -0.423704436434061        4.30160146622651     
  7.203773751479320E-002 -0.317774315082929        3.72216757141970     
  7.203773751479320E-002 -0.211850529508475        2.73436817610182     
  7.203773751479320E-002 -0.105925053478478        1.44653887689264     
  7.203773751479320E-002 -9.663058790326291E-019  1.344284927542856E-017
  7.203773751479320E-002  0.105925053478478       -1.44653887689264     
  7.203773751479320E-002  0.211850529508475       -2.73436817610182     
  7.203773751479320E-002  0.317774315082929       -3.72216757141970     
  7.203773751479320E-002  0.423704436434061       -4.30160146622651     
  7.203773751479320E-002  0.529610856542781       -4.40904967428339     
  7.203773751479320E-002  0.635605065171759       -4.03240116139541     
  7.203773751479320E-002  0.741262543272473       -3.21596722251019     
  7.203773751479320E-002  0.848039647510822       -2.03461982170785     
  7.203773751479320E-002  0.955162973124140      -0.621693592737139     
  7.203773751479320E-002   1.00000000000000      -5.422976050475792E-016
  0.216124144913340       -1.00000000000000       1.517738916456651E-015
  0.216124144913340      -0.955162973124140        1.73994602046255     
  0.216124144913340      -0.848039647510822        5.69433029918907     
  0.216124144913340      -0.741262543272473        9.00059038104082     
  0.216124144913340      -0.635605065171759        11.2855600180603     
  0.216124144913340      -0.529610856542781        12.3396935796227     
  0.216124144913340      -0.423704436434061        12.0389761776768     
  0.216124144913340      -0.317774315082929        10.4173032005571     
  0.216124144913340      -0.211850529508475        7.65272970812072     
  0.216124144913340      -0.105925053478478        4.04845665404485     
  0.216124144913340      -9.663058790326291E-019  3.762276525559970E-017
  0.216124144913340       0.105925053478478       -4.04845665404485     
  0.216124144913340       0.211850529508475       -7.65272970812072     
  0.216124144913340       0.317774315082929       -10.4173032005571     
  0.216124144913340       0.423704436434061       -12.0389761776768     
  0.216124144913340       0.529610856542781       -12.3396935796227     
  0.216124144913340       0.635605065171759       -11.2855600180603     
  0.216124144913340       0.741262543272473       -9.00059038104082     
  0.216124144913340       0.848039647510822       -5.69433029918907     
  0.216124144913340       0.955162973124140       -1.73994602046255     
  0.216124144913340        1.00000000000000      -1.517738916456651E-015
  0.360177693863957       -1.00000000000000       2.187363756489942E-015
  0.360177693863957      -0.955162973124140        2.50760840493833     
  0.360177693863957      -0.848039647510822        8.20666293713267     
  0.360177693863957      -0.741262543272473        12.9716415471930     
  0.360177693863957      -0.635605065171759        16.2647374245557     
  0.360177693863957      -0.529610856542781        17.7839536231127     
  0.360177693863957      -0.423704436434061        17.3505600144820     
  0.360177693863957      -0.317774315082929        15.0134065972711     
  0.360177693863957      -0.211850529508475        11.0291061395705     
  0.360177693863957      -0.105925053478478        5.83463154219724     
  0.360177693863957      -9.663058790326291E-019  5.422189037041694E-017
  0.360177693863957       0.105925053478478       -5.83463154219724     
  0.360177693863957       0.211850529508475       -11.0291061395705     
  0.360177693863957       0.317774315082929       -15.0134065972711     
  0.360177693863957       0.423704436434061       -17.3505600144820     
  0.360177693863957       0.529610856542781       -17.7839536231127     
  0.360177693863957       0.635605065171759       -16.2647374245557     
  0.360177693863957       0.741262543272473       -12.9716415471930     
  0.360177693863957       0.848039647510822       -8.20666293713267     
  0.360177693863957       0.955162973124140       -2.50760840493833     
  0.360177693863957        1.00000000000000      -2.187363756489942E-015
  0.504350818728616       -1.00000000000000       2.416576210451358E-015
  0.504350818728616      -0.955162973124140        2.77037909150787     
  0.504350818728616      -0.848039647510822        9.06663391592996     
  0.504350818728616      -0.741262543272473        14.3309315976559     
  0.504350818728616      -0.635605065171759        17.9691088932056     
  0.504350818728616      -0.529610856542781        19.6475227889615     
  0.504350818728616      -0.423704436434061        19.1687141402988     
  0.504350818728616      -0.317774315082929        16.5866519060455     
  0.504350818728616      -0.211850529508475        12.1848391427124     
  0.504350818728616      -0.105925053478478        6.44603886289538     
  0.504350818728616      -9.663058790326291E-019  5.990376770488180E-017
  0.504350818728616       0.105925053478478       -6.44603886289538     
  0.504350818728616       0.211850529508475       -12.1848391427124     
  0.504350818728616       0.317774315082929       -16.5866519060455     
  0.504350818728616       0.423704436434061       -19.1687141402988     
  0.504350818728616       0.529610856542781       -19.6475227889615     
  0.504350818728616       0.635605065171759       -17.9691088932056     
  0.504350818728616       0.741262543272473       -14.3309315976559     
  0.504350818728616       0.848039647510822       -9.06663391592996     
  0.504350818728616       0.955162973124140       -2.77037909150787     
  0.504350818728616        1.00000000000000      -2.416576210451358E-015
  0.648065878915366       -1.00000000000000       2.159954704300214E-015
  0.648065878915366      -0.955162973124140        2.47618648462973     
  0.648065878915366      -0.848039647510822        8.10382825676458     
  0.648065878915366      -0.741262543272473        12.8090986692201     
  0.648065878915366      -0.635605065171759        16.0609299711318     
  0.648065878915366      -0.529610856542781        17.5611094292518     
  0.648065878915366      -0.423704436434061        17.1331465168198     
  0.648065878915366      -0.317774315082929        14.8252791110451     
  0.648065878915366      -0.211850529508475        10.8909044596311     
  0.648065878915366      -0.105925053478478        5.76151991639955     
  0.648065878915366      -9.663058790326291E-019  5.354245576856843E-017
  0.648065878915366       0.105925053478478       -5.76151991639955     
  0.648065878915366       0.211850529508475       -10.8909044596311     
  0.648065878915366       0.317774315082929       -14.8252791110451     
  0.648065878915366       0.423704436434061       -17.1331465168198     
  0.648065878915366       0.529610856542781       -17.5611094292518     
  0.648065878915366       0.635605065171759       -16.0609299711318     
  0.648065878915366       0.741262543272473       -12.8090986692201     
  0.648065878915366       0.848039647510822       -8.10382825676458     
  0.648065878915366       0.955162973124140       -2.47618648462973     
  0.648065878915366        1.00000000000000      -2.159954704300214E-015
  0.793303864140475       -1.00000000000000       1.462259184356878E-015
  0.793303864140475      -0.955162973124140        1.67634368541227     
  0.793303864140475      -0.848039647510822        5.48617860981669     
  0.793303864140475      -0.741262543272473        8.67158099894911     
  0.793303864140475      -0.635605065171759        10.8730253985622     
  0.793303864140475      -0.529610856542781        11.8886259509498     
  0.793303864140475      -0.423704436434061        11.5989010330976     
  0.793303864140475      -0.317774315082929        10.0365070145317     
  0.793303864140475      -0.211850529508475        7.37299029481653     
  0.793303864140475      -0.105925053478478        3.90046855928852     
  0.793303864140475      -9.663058790326291E-019  3.624749516493978E-017
  0.793303864140475       0.105925053478478       -3.90046855928852     
  0.793303864140475       0.211850529508475       -7.37299029481653     
  0.793303864140475       0.317774315082929       -10.0365070145317     
  0.793303864140475       0.423704436434061       -11.5989010330976     
  0.793303864140475       0.529610856542781       -11.8886259509498     
  0.793303864140475       0.635605065171759       -10.8730253985622     
  0.793303864140475       0.741262543272473       -8.67158099894911     
  0.793303864140475       0.848039647510822       -5.48617860981669     
  0.793303864140475       0.955162973124140       -1.67634368541227     
  0.793303864140475        1.00000000000000      -1.462259184356878E-015
  0.939012774789986       -1.00000000000000       4.583916746058413E-016
  0.939012774789986      -0.955162973124140       0.525503274242739     
  0.939012774789986      -0.848039647510822        1.71981727114040     
  0.939012774789986      -0.741262543272473        2.71838301862795     
  0.939012774789986      -0.635605065171759        3.40849582194341     
  0.939012774789986      -0.529610856542781        3.72686813440338     
  0.939012774789986      -0.423704436434061        3.63604463902716     
  0.939012774789986      -0.317774315082929        3.14626251406170     
  0.939012774789986      -0.211850529508475        2.31129843754752     
  0.939012774789986      -0.105925053478478        1.22272599397354     
  0.939012774789986      -9.663058790326291E-019  1.136293085841121E-017
  0.939012774789986       0.105925053478478       -1.22272599397354     
  0.939012774789986       0.211850529508475       -2.31129843754752     
  0.939012774789986       0.317774315082929       -3.14626251406170     
  0.939012774789986       0.423704436434061       -3.63604463902716     
  0.939012774789986       0.529610856542781       -3.72686813440338     
  0.939012774789986       0.635605065171759       -3.40849582194341     
  0.939012774789986       0.741262543272473       -2.71838301862795     
  0.939012774789986       0.848039647510822       -1.71981727114040     
  0.939012774789986       0.955162973124140      -0.525503274242739     
  0.939012774789986        1.00000000000000      -4.583916746058413E-016
   1.00000000000000       -1.00000000000000      -2.952436347660833E-017
   1.00000000000000      -0.955162973124140      -3.384692728163250E-002
   1.00000000000000      -0.848039647510822      -0.110771013173731     
   1.00000000000000      -0.741262543272473      -0.175087229452022     
   1.00000000000000      -0.635605065171759      -0.219536425137035     
   1.00000000000000      -0.529610856542781      -0.240042338299761     
   1.00000000000000      -0.423704436434061      -0.234192524617996     
   1.00000000000000      -0.317774315082929      -0.202646346354053     
   1.00000000000000      -0.211850529508475      -0.148867483755580     
   1.00000000000000      -0.105925053478478      -7.875406268976139E-002
   1.00000000000000      -9.663058790326291E-019 -7.318704056127638E-019
   1.00000000000000       0.105925053478478       7.875406268976139E-002
   1.00000000000000       0.211850529508475       0.148867483755580     
   1.00000000000000       0.317774315082929       0.202646346354053     
   1.00000000000000       0.423704436434061       0.234192524617996     
   1.00000000000000       0.529610856542781       0.240042338299761     
   1.00000000000000       0.635605065171759       0.219536425137035     
   1.00000000000000       0.741262543272473       0.175087229452022     
   1.00000000000000       0.848039647510822       0.110771013173731     
   1.00000000000000       0.955162973124140       3.384692728163250E-002
   1.00000000000000        1.00000000000000       2.952436347660833E-017
