 VARIABLES = "X", "L0", "L1", "L2", "L3" 
 ZONE I=         701 ,DATAPACKING=POINT
  -1.00000000000000        1.00000000000000       1.874949330077182E+019
  5.653742002797608E+021  1.184836170883135E+024
 -0.997142857142857       3.457336383362372E+016  6.711204110118469E+018
  2.999009159882608E+021  7.089108340250233E+023
 -0.994285714285714       4.392856910724289E+016  5.780261198512663E+017
  1.437077438316140E+021  4.079181804184330E+023
 -0.991428571428571       4.109206020481034E+016  2.147534881295315E+018
  5.590061798673521E+020  2.220509489000416E+023
 -0.988571428571429       3.341195250153664E+016  3.010181516690045E+018
  9.765106339185328E+019  1.107149121474428E+023
 -0.985714285714286       2.476996136848732E+016  2.937157420151452E+018
  1.184200782599888E+020  4.668958406427876E+022
 -0.982857142857143       1.700243700791062E+016  2.463264227454195E+018
  1.968661146146212E+020  1.197606969161127E+022
 -0.980000000000000       1.079402117462095E+016  1.879773068120355E+018
  2.034885809937930E+020  5.133021050812277E+021
 -0.977142857142857       6.224846732805003E+015  1.331381528223486E+018
  1.771020383549975E+020  1.210402436269907E+022
 -0.974285714285714       3.094116330144626E+015  8.781242724288429E+017
  1.394950669539655E+020  1.358382633301599E+022
 -0.971428571428571       1.102404071841263E+015  5.339658941042326E+017
  1.020038016324475E+020  1.237524760110557E+022
 -0.968571428571429        52930619083229.0       2.901277859749720E+017
  6.977383369358705E+019  1.009838654589078E+022
 -0.965714285714286        633916081709216.       1.286120612870883E+017
  4.446445197813790E+019  7.632949127097327E+021
 -0.962857142857143        847299212426136.       2.957927115368986E+016
  2.591858367826828E+019  5.409389729357501E+021
 -0.960000000000000        845158957540201.       2.501093806090136E+016
  1.315780996245447E+019  3.596885499624802E+021
 -0.957142857142857        732515287062297.       4.993895240398782E+016
  4.946197647643671E+018  2.221845889158840E+021
 -0.954285714285714        577220921760108.       5.646084712071678E+016
  8.590755975613706E+016  1.240375227540014E+021
 -0.951428571428571        419650408091983.       5.263816808970956E+016
  2.448301920831919E+018  5.807782997120734E+020
 -0.948571428571429        281042047857826.       4.390748194009702E+016
  3.466700195451932E+018  1.670220481151663E+020
 -0.945714285714286        170117613616264.       3.369324844643725E+016
  3.571056455893732E+018  6.955577191457187E+019
 -0.942857142857143        88015021180676.0       2.396520678540274E+016
  3.183702612758496E+018  1.855073448754892E+020
 -0.940000000000000        31761006708521.7       1.569951841795471E+016
  2.583992764181270E+018  2.244352227802888E+020
 -0.937142857142857        3424040181827.45       9.235523305408092E+015
  1.943975269240404E+018  2.181374455690451E+020
 -0.934285714285714        22700468030973.0       4.536683881291445E+015
  1.359395766970924E+018  1.885870792623968E+020
 -0.931428571428571        30810778589505.5       1.371437195733612E+015
  8.746751620762533E+017  1.500917419141495E+020
 -0.928571428571429        31704118655153.2        568644129209749.     
  5.018938013244090E+017  1.112917432100873E+020
 -0.925714285714286        28428378480204.5       1.597170549652595E+015
  2.344924282226656E+017  7.684626207790557E+019
 -0.922857142857143        23177386207919.5       1.993994606439295E+015
  5.665750626757414E+016  4.876761979486289E+019
 -0.920000000000000        17415907862994.6       1.988104002388617E+015
  5.062171815652930E+016  2.742306361496767E+019
 -0.917142857142857        12032402738693.6       1.754138315437138E+015
  1.059377343413695E+017  1.225108435263291E+019
 -0.914285714285714        7489518859838.56       1.416643530900278E+015
  1.255544459026205E+017  2.248106767199038E+018
 -0.911428571428571        3956341755698.52       1.058054331533356E+015
  1.226246105484732E+017  3.720184230642253E+018
 -0.908571428571429        1415715792429.27        727830276642262.     
  1.071039006770292E+017  6.735295821642636E+018
 -0.905714285714286        254271630614.454        451220987237069.     
  8.605433557258485E+016  7.731151658326554E+018
 -0.902857142857143        1222306908108.88        236866044732310.     
  6.412879136438812E+016  7.457739319751335E+018
 -0.900000000000000        1665502662211.14        82917546762917.3     
  4.410360411378823E+016  6.480623292058334E+018
 -0.897142857142857        1746390616615.98        18329514503342.5     
  2.738108694600470E+016  5.200292606009969E+018
 -0.894285714285714        1601179565775.32        77148448494359.8     
  1.442186676810558E+016  3.880495054086214E+018
 -0.891428571428571        1335759036452.08        104207004194140.     
  5.092042625311644E+015  2.678643544048004E+018
 -0.888571428571429        1026614165419.34        109262962906055.     
  1.074394996247012E+015  1.674240737454783E+018
 -0.885714285714286        724503318031.156        100498529651558.     
  4.688887271942766E+015  8.932572326986067E+017
 -0.882857142857143        459365692070.060        84295012086297.9     
  6.384491467077113E+015  3.277114406521147E+017
 -0.880000000000000        245438740491.383        65287899916375.7     
  6.741155214548274E+015  4.949123413140587E+016
 -0.877142857142857        85966606507.6776        46580855044060.2     
  6.247187415027306E+015  2.739522484321641E+017
 -0.874285714285714        22822516408.1538        30031542077127.5     
  5.285822266623830E+015  3.826945499912054E+017
 -0.871428571428571        88585883224.0108        16550939121473.8     
  4.137904523205608E+015  4.098383861082450E+017
 -0.868571428571429        120565288857.320        6380343933484.09     
  2.993842470114078E+015  3.843264209205110E+017
 -0.865714285714286        128021532863.258        672914966315.444     
  1.969879895989710E+015  3.290820699459281E+017
 -0.862857142857143        119273693478.790        5048273467385.92     
  1.125335389187461E+015  2.611003844078836E+017
 -0.860000000000000        101203891093.510        7292753343526.54     
   478721773345028.       1.920859499047462E+017
 -0.857142857142857        79096718740.3214        7964793332314.57     
   21607556429137.9       1.293565947755473E+017
 -0.854285714285714        56700493407.8508        7573843393717.28     
   270244422061890.       7.681988685858499E+016
 -0.851428571428571        36419406840.9884        6547833470760.78     
   428479362209037.       3.589987830047536E+016
 -0.848571428571429        19567848157.8304        5220997963100.58     
   486242261438153.       6.345052155611834E+015
 -0.845714285714286        6638398905.92919        3835480796866.90     
   474368409666531.       1.311309497267347E+016
 -0.842857142857143        2447897522.90819        2551347679688.17     
   419234437047087.       2.425540320879248E+016
 -0.840000000000000        8126825626.59305        1460877827869.86     
   341843778123663.       2.901275885944111E+016
 -0.837142857142857        11019570740.2606        604163692709.835     
   257767467042275.       2.922584555982951E+016
 -0.834285714285714        11805272909.2127        15960618678.2215     
   177625223637568.       2.650314265556792E+016
 -0.831428571428571        11133802007.6348        420825162973.901     
   107860380885194.       2.215341167609614E+016
 -0.828571428571429        9572551202.81073        645267558166.426     
   51627351892227.8       1.717108818867343E+016
 -0.825714285714286        7580088260.16328        729483183940.643     
   9667461586663.47       1.225629067200851E+016
 -0.822857142857143        5499567174.43573        713291251994.537     
   18904022813177.3       7.854848002646887E+015
 -0.820000000000000        3565502718.95979        632459969214.671     
   35940333614027.1       4.207355075262552E+015
 -0.817142857142857        1918549329.24217        516708089446.968     
   43749124493875.5       1.399505045021125E+015
 -0.814285714285714        624084725.084005        388973594077.610     
   44717755525808.7        591328801276314.     
 -0.811428571428571        308471186.896518        265571169723.085     
   41062688180971.6       1.856123949396379E+015
 -0.808571428571429        907662286.649476        156913032804.134     
   34681999462725.4       2.522092299071462E+015
 -0.805714285714286        1224546681.77171        68530976042.6854     
   27088221033979.9       2.728512787463241E+015
 -0.802857142857143        1320354802.54626        2201909311.12445     
   19399569836302.9       2.609874628836231E+015
 -0.800000000000000        1257340023.69161        42961440032.2494     
   12370126588613.3       2.285273711149438E+015
 -0.797142857142857        1092586421.06772        69542070726.2290     
   6442837974740.45       1.852829260320224E+015
 -0.794285714285714        874349531.663922        81018923447.5934     
   1812784807779.57       1.387880196549774E+015
 -0.791428571428571        640419845.445891        81151265238.5728     
   1508423068473.45        943822675844000.     
 -0.788571428571429        417987495.162113        73541072687.7514     
   3633235515654.29        554614330255416.     
 -0.785714285714286        224525582.525864        61353502688.3757     
   4747330604799.27        238161038720312.     
 -0.782857142857143        69278278.1435959        47168206891.5040     
   5068992172442.05        2792718538189.34     
 -0.780000000000000        44977800.5513775        32931759953.0945     
   4818890771993.11        163183450339748.     
 -0.777142857142857        120146149.503890        19982405275.3657     
   4199492730061.34        260333278754394.     
 -0.774285714285714        161165924.589944        9121442360.51477     
   3382746189000.01        303466661686679.     
 -0.771428571428571        174612066.101493        709888257.448994     
   2504423911509.94        305605091589990.     
 -0.768571428571429        167587349.504090        5226220571.11138     
   1663460734201.09        279313893121190.     
 -0.765714285714286        146912815.233290        8893901672.97565     
   924736330688.733        235745198870256.     
 -0.762857142857143        118594778.125435        10642547207.9683     
   323960716299.522        184108111687295.     
 -0.760000000000000        87529276.5980706        10888875853.6915     
   126427578265.717        131474174323290.     
 -0.757142857142857        57396375.0902684        10059169204.6504     
   431177781703.624        82827785813152.0     
 -0.754285714285714        30695053.1620403        8548435162.54622     
   606539293157.571        41279691330693.2     
 -0.751428571428571        8872492.53752765        6694803247.59949     
   675331480169.220        8374164908318.04     
 -0.748571428571429        7492356.39996825        4766681733.37813     
   662958495893.696        15565313508418.9     
 -0.745714285714286        18483420.5279952        2959882574.76247     
   594415946103.260        31092873042712.7     
 -0.742857142857143        24644861.5164616        1401931713.14513     
   492239799216.467        39327592484490.9     
 -0.740000000000000        26797926.7986765        161023512.184969     
   375284026431.876        41688014783456.4     
 -0.737142857142857        25887404.6119085        742542679.571032     
   258179159290.986        39681618031252.5     
 -0.734285714285714        22862199.3813841        1324161083.74980     
   151312307783.920        34750008020136.5     
 -0.731428571428571        18590298.1816533        1623222295.48668     
   61174187864.4118        28165850204345.7     
 -0.728571428571429        13805389.7208729        1692762651.92282     
   9065701802.86559        20974533920799.1     
 -0.725714285714286        9080515.16356586        1590945492.52324     
   58867953163.5957        13972032639110.8     
 -0.722857142857143        4823191.71126140        1374559633.90282     
   89617662977.9203        7710045507716.33     
 -0.720000000000000        1286251.69721425        1094499135.81559     
   103952091295.242        2519952988460.02     
 -0.717142857142857        1411022.50202538        793033935.570733     
   105182216672.419        1451900866109.81     
 -0.714285714285714        3256183.43685768        502587450.967101     
   96820769915.1395        4203721166337.99     
 -0.711428571428571        4315196.06182387        245694284.957894     
   82227791813.9190        5837554409026.39     
 -0.708571428571429        4705164.49086699        35807302.7634983     
   64369046437.7081        6521466136241.76     
 -0.705714285714286        4570219.07714370        121352634.751676     
   45675132552.6855        6457096232719.38     
 -0.702857142857143        4061712.94156176        226167717.454558     
   27984446892.9609        5853555247969.59     
 -0.700000000000000        3323208.59330968        283430483.687640     
   12551143901.6196        4908015981617.83     
 -0.697142857142857        2480202.49304422        300742225.559890     
   154434827.474916        3792679340640.89     
 -0.694285714285714        1634157.09531895        287112494.830810     
   9093916263.58943        2647380466155.49     
 -0.691428571428572        860171.693213893        251819451.269957     
   15100902163.9519        1576861211838.17     
 -0.688571428571429        207505.367082007        203554177.101657     
   18243902645.2970        651638119972.515     
 -0.685714285714286        297858.147901095        149842681.620523     
   19001550717.1487        88759194187.0631     
 -0.682857142857143        649351.033321238        96718424.8809494     
   17927684538.0012        629970908822.040     
 -0.680000000000000        855356.803274986        48605274.1068599     
   15585602888.2542        978750290852.255     
 -0.677142857142857        934637.155267886        8364577.34055333     
   12498967139.5680        1155476974484.80     
 -0.674285714285714        912081.648593363        22540982.9280823     
   9118857052.49174        1189561227936.49     
 -0.671428571428571        815037.864112100        43809833.7012368     
   5805359818.39660        1114574258322.40     
 -0.668571428571429        670376.059679507        56031167.5300125     
   2821344773.67994        964443110573.176     
 -0.665714285714286        502340.978901779        60409103.3283490     
   335735506.611509        770609168341.327     
 -0.662857142857143        331165.967816282        58507493.2699168     
   1566467845.58193        560121966248.328     
 -0.660000000000000        172369.190595596        52029900.1573506     
   2869859748.92471        354574007859.791     
 -0.657142857142857        36617.0848208364        42643541.0045734     
   3612503688.31898        169742660927.472     
 -0.654285714285714        69978.2029660132        31850354.2508862     
   3869376643.70001        15785089311.4014     
 -0.651428571428571        145249.645427480        20903676.9351476     
   3737121861.37829        102172460104.979     
 -0.648571428571429        190207.118840197        10765805.9654160     
   3320828713.24565        183185317271.755     
 -0.645714285714286        208178.658290469        2099670.80145633     
   2723427059.53486        229544980505.653     
 -0.642857142857143        203977.614133674        4713316.63381656     
   2037868120.63123        245789112060.079     
 -0.640000000000000        183147.329210353        9536161.62110427     
   1342020622.79934        237793559780.588     
 -0.637142857142857        151327.269417438        12429962.0205754     
   696014810.151592        211978890415.232     
 -0.634285714285714        113762.557162803        13601157.8568850     
   141643096.533489        174667535690.903     
 -0.631428571428571        74962.1115807701        13350378.3130276     
   296654800.073676        131605169576.064     
 -0.628571428571429        38497.5245588771        12025847.5587767     
   609571469.767857        87642627687.1569     
 -0.625714285714286        6925.50954767743        9983867.88898574     
   800239813.526969        46564056920.1614     
 -0.622857142857143        18190.7516478440        7557960.26886191     
   880970047.526229        11039282282.3856     
 -0.620000000000000        36175.7312727199        5037034.60345617     
   870166547.819674        17328380076.3340     
 -0.617142857142857        47104.9068237967        2652196.33166348     
   789439505.716552        37868395390.2968     
 -0.614285714285714        51622.0115951883        571217.537767087     
   661141769.633769        50699390183.0337     
 -0.611428571428571        50759.9496402612        1100828.15029631     
   506417682.811009        56522117980.0938     
 -0.608571428571429        45769.1472384831        2315290.65276668     
   343792799.543611        56436758524.8122     
 -0.605714285714286        37966.9225066988        3072170.81370969     
   188291638.461573        51765709836.9098     
 -0.602857142857143        28615.1113848498        3408679.61120827     
   51030008.3379724        43899501267.1385     
 -0.600000000000000        18829.3312784450        3388088.49083597     
   60815447.4994721        34172691902.6835     
 -0.597142857142857        9520.02471331681        3088988.67459684     
   143616741.759757        23772263984.5104     
 -0.594285714285714        1362.90916272932        2595614.43826170     
   196941719.700237        13677778472.2309     
 -0.591428571428571        5207.10247292969        1989865.18977582     
   222775366.839731        4630851167.61032     
 -0.588571428571429        9972.67409043439        1345255.08549814     
   224878958.452476        2874333651.32399     
 -0.585714285714286        12915.3588169105        722836.526900887     
   208105686.402544        8557819083.76483     
 -0.582857142857143        14168.4504884628        168985.042510670     
   177780840.929915        12360376763.5303     
 -0.580000000000000        13975.9004813143        285346.877188273     
   139185391.443921        14373588481.2327     
 -0.577142857142857        12649.4834954382        623216.208889104     
   97149692.8765828        14811768900.9082     
 -0.574285714285714        10529.5591596990        841049.963105134     
   55769742.7516334        13967580766.1052     
 -0.571428571428571        7951.74873003664        945536.054595866     
   18240381.2913093        12173057721.9666     
 -0.568571428571429        5220.89767930810        951074.503246239     
   13229728.0615741        9765494500.08219     
 -0.565714285714286        2592.84406981246        877096.335982568     
   37290826.0162463        7060527839.74605     
 -0.562857142857143        263.802147205663        745496.252987818     
   53539102.6333362        4332306484.37488     
 -0.560000000000000        1635.16761160294        578395.647613964     
   62230045.8322636        1800972676.08160     
 -0.557142857142857        3028.71510003385        396349.544157189     
   64168118.3290384        381868052.392081     
 -0.554285714285714        3902.24074730142        217038.270586421     
   60532153.1857668        2091171714.41118     
 -0.551428571428571        4284.48873587483        54446.6538678126     
   52704383.3224001        3305087030.18326     
 -0.548571428571429        4238.38325737530        81666.8611457586     
   42125393.9799402        4020150289.86490     
 -0.545714285714286        3849.35073741532        185077.158163482     
   30170345.2949403        4277410256.74314     
 -0.542857142857143        3214.15786425098        253837.625683544     
   18055175.3648057        4145196134.82532     
 -0.540000000000000        2431.02858050177        288987.091395324     
   6773727.59591960        3708839480.56210     
 -0.537142857142857        1591.55499701244        294016.901631456     
   2961751.26112686        3060630343.47400     
 -0.534285714285714        774.679509905878        274144.656415032     
   10611862.0666564        2291461011.78124     
 -0.531428571428571        42.8137272988006        235593.029835768     
   16001280.3510193        1484240668.83609     
 -0.528571428571429        561.804678765512        184903.957066050     
   19117613.6028232        709110851.182097     
 -0.525714285714286        1009.78203373697        128368.074926364     
   20132103.7052800        32232601.9915874     
 -0.522857142857143        1294.64072945180        71580.8389699848     
   19350664.3578595        545254876.555905     
 -0.520000000000000        1422.49960694924        19136.0800894485     
   17161836.5008555        963613831.587846     
 -0.517142857142857        1410.94336187731        25708.7023243209     
   13992290.9797240        1230872909.26480     
 -0.514285714285714        1285.56154247383        60408.6017066013     
   10267926.5645745        1353558573.29451     
 -0.511428571428571        1076.49391472841        84148.4964830202     
   6380901.34067113        1347960003.63666     
 -0.508571428571429        815.245582516458        96970.5003840191     
   2665845.51488739        1237399784.95906     
 -0.505714285714286        531.966645959020        99760.7165218552     
   646052.695166452        1049081681.46854     
 -0.502857142857143        253.320739470721        94021.1865188091     
   3293692.38631456        811209690.556373     
 -0.500000000000000        1.00000000000000        81675.6061989723     
   5236925.20572165        550830580.847445     
 -0.497142857142857        210.902978412621        64833.3726773797     
   6435916.62410765        291964472.920014     
 -0.494285714285714        368.754798777875        45594.4164245212     
   6921581.01668883        54325185.6025890     
 -0.491428571428571        470.533909314670        25888.7581023174     
   6777233.43058479        149045406.653569     
 -0.488571428571429        517.341168795665        7357.88447515539     
   6120690.08598237        304593548.641198     
 -0.485714285714286        514.451483412340        8885.72019482904     
   5088000.49246122        410882275.059532     
 -0.482857142857143        470.204329359816        21613.6268934770     
   3822135.38247283        467683530.083764     
 -0.480000000000000        394.844686692288        30557.7840175929     
   2460164.90105841        478808244.467836     
 -0.477142857142857        299.410587272909        35628.9966996136     
   1123956.20179876        450854247.399658     
 -0.474285714285714        194.743708490642        37060.6822590441     
   125871.347277857        392398843.402881     
 -0.471428571428571        90.6774215801459        35303.8425248655     
   1110712.69515597        312836254.739064     
 -0.468571428571429        6.55411175057375        31001.8695709982     
   1870821.58784708        221643726.960994     
 -0.465714285714286        86.5427192068094        24893.4388942481     
   2367528.22147855        127658859.139597     
 -0.462857142857143        147.384305089911        17740.7792595300     
   2601001.77704002        38509164.9709081     
 -0.460000000000000        187.157191481026        10267.6829260523     
   2594191.60489773        41642235.4751098     
 -0.457142857142857        205.891239028035        3111.50925560681     
   2385909.32478895        103808537.098421     
 -0.454285714285714        205.263718842072        3376.44734909763     
   2022070.34681674        148992599.520622     
 -0.451428571428571        188.216792556737        8466.29753863420     
   1554489.49023864        175886074.693593     
 -0.448571428571429        158.537575946660        12135.7305512337     
   1034948.92590036        185286775.333193     
 -0.445714285714286        120.438099303349        14307.5682627158     
   511399.287846471        179000248.266376     
 -0.442857142857143        78.1666764643119        15050.3840960974     
   35557.4185409469        159880575.769362     
 -0.440000000000000        35.6750085033575        14494.7261656710     
   406099.230253653        131292413.337243     
 -0.437142857142857        5.62112083451610        12871.9472777152     
   728043.333935024        96768148.9557262     
 -0.434285714285714        38.9168326495568        10461.8141453128     
   949594.908625480        59794825.5698350     
 -0.431428571428571        64.5326941556861        7564.23078466039     
   1066209.43229339        23533739.8163455     
 -0.428571428571429        81.5125953606944        4473.61552280596     
   1083506.30549380        11586386.5014207     
 -0.425714285714286        89.7066519931948        1458.72836372047     
   1015010.54686321        38001322.0017366     
 -0.422857142857143        89.6690637442721        1419.63973603096     
   877396.917277323        58501119.2428813     
 -0.420000000000000        82.5172586907950        3632.57078547547     
   690524.068639469        71789502.5371272     
 -0.417142857142857        69.7683235984739        5268.12420509533     
   475466.429073022        77922674.5918992     
 -0.414285714285714        53.1680899319939        6273.41905339149     
   252572.294489718        77285255.1001085     
 -0.411428571428571        34.5265981008093        6675.51441042364     
   40033.8997235178        70844024.2277832     
 -0.408571428571429        15.5712620445602        6503.79295354308     
   161218.991280855        59913068.2670701     
 -0.405714285714286        4.14405013654351        5845.59737812918     
   308467.224072695        45863062.6922944     
 -0.402857142857143        19.2668792674990        4814.97165558458     
   414613.610159589        30163887.7060648     
 -0.400000000000000        31.0362492579466        3539.37758962599     
   476061.835945346        14222310.9514320     
 -0.397142857142857        38.9497196415633        2148.37540551994     
   493100.024340034        3397930.48733409     
 -0.394285714285714        42.8652174700336        765.039541500528     
   470640.958774340        14912096.7266500     
 -0.391428571428571        42.9660141043803        669.001058890747     
   415358.829239222        24809604.1991558     
 -0.388571428571429        39.7058508738807        1711.56458348257     
   335009.009267871        31746638.2284715     
 -0.385714285714286        33.7408182476008        2501.30380367387     
   238791.662046885        35523445.6732297     
 -0.382857142857143        25.8546961296107        3003.96869292885     
   135992.112211856        36212445.7747743     
 -0.380000000000000        16.8840733896216        3232.25437478578     
   35350.3083665283        34086395.9709071     
 -0.377142857142857        7.64877492862672        3188.82378422764     
   70348.5002672748        29690240.3847967     
 -0.374285714285714        3.07119025680037        2904.54796743807     
   142481.638702568        23592000.0384598     
 -0.371428571428571        10.5585854577979        2429.14920590119     
   196848.636616832        16435504.5260249     
 -0.368571428571429        16.4535855391189        1820.89053604878     
   231239.744432356        8891043.73020248     
 -0.365714285714286        20.4755452296950        1141.24578960232     
   244204.115508728        1813845.91594248     
 -0.362857142857143        22.5176363468426        451.451738181006     
   237466.871178550        6303418.38848437     
 -0.360000000000000        22.6352105166510        359.370255377580     
   214285.417443086        11350155.5782205     
 -0.357142857142857        21.0234920347991        889.376351193662     
   177412.653234356        15180230.3004222     
 -0.354285714285714        17.9874597329938        1300.88324558046     
   131131.012838868        17502882.1128530     
 -0.351428571428571        13.9070045005290        1570.93174232133     
   79971.9099030047        18365939.3837092     
 -0.348571428571429        9.20043189361928        1707.21449886877     
   28520.3894361350        17768881.5900420     
 -0.345714285714286        4.28914723847849        1707.61733042563     
   34520.5835958748        15940711.0161575     
 -0.342857142857143        2.39160686258412        1578.78583684255     
   72043.5299050145        13150707.0523595     
 -0.340000000000000        6.42663725088645        1343.70947674865     
   101553.480111269        9674832.93960417     
 -0.337142857142857        9.63994577558541        1030.87005432426     
   122033.149224988        5852876.93488026     
 -0.334285714285714        11.8646583844053        671.578847122329     
   131394.354776022        1997336.02507376     
 -0.331428571428571        13.0240771891722        298.968423124453     
   130042.544898282        2961455.27287739     
 -0.328571428571429        13.1284513475803        222.695044696959     
   120200.269081909        5618650.52119325     
 -0.325714285714286        12.2657183960805        511.938435941678     
   102347.522643275        7842562.15270293     
 -0.322857142857143        10.5874979906406        742.177838418353     
   78586.1185539831        9288620.99007570     
 -0.320000000000000        8.29182492820997        897.151545705369     
   51257.4322833190        10048031.4471862     
 -0.317142857142857        5.60418783814838        981.906428565005     
   23025.0727033411        10001188.1594146     
 -0.314285714285714        2.75840177140623        996.972149619073     
   19597.9998918762        9235688.02177555     
 -0.311428571428571        1.97445971960802        937.129600790387     
   40138.1472375869        7914634.72921166     
 -0.308571428571429        4.33545075383332        813.519577459134     
   56898.2799733625        6134825.46717763     
 -0.305714285714286        6.23587652676629        640.924834507254     
   69852.3401109324        4078042.32327790     
 -0.302857142857143        7.57030106701789        436.367646633660     
   76624.6449687653        1922310.31615596     