 VARIABLES = "X", "I"
 ZONE I=         701 ,DATAPACKING=POINT
  -1.00000000000000      -1.224646799147353E-016
 -0.997142857142857       0.125000000000000     
 -0.994285714285714        1.37500000000000     
 -0.991428571428571       -1.25000000000000     
 -0.988571428571429       0.500000000000000     
 -0.985714285714286        1.12500000000000     
 -0.982857142857143       0.562500000000000     
 -0.980000000000000      -9.375000000000000E-002
 -0.977142857142857      -0.156250000000000     
 -0.974285714285714      -6.250000000000000E-002
 -0.971428571428571      -8.593750000000000E-002
 -0.968571428571429      -9.716796875000000E-002
 -0.965714285714286      -0.111328125000000     
 -0.962857142857143      -0.109375000000000     
 -0.960000000000000      -0.125000000000000     
 -0.957142857142857      -0.121093750000000     
 -0.954285714285714      -0.156250000000000     
 -0.951428571428571      -0.144531250000000     
 -0.948571428571429      -0.159179687500000     
 -0.945714285714286      -0.169433593750000     
 -0.942857142857143      -0.177001953125000     
 -0.940000000000000      -0.189453125000000     
 -0.937142857142857      -0.196350097656250     
 -0.934285714285714      -0.204833984375000     
 -0.931428571428571      -0.214477539062500     
 -0.928571428571429      -0.223876953125000     
 -0.925714285714286      -0.231689453125000     
 -0.922857142857143      -0.240722656250000     
 -0.920000000000000      -0.248901367187500     
 -0.917142857142857      -0.257202148437500     
 -0.914285714285714      -0.265747070312500     
 -0.911428571428571      -0.274749755859375     
 -0.908571428571429      -0.283294677734375     
 -0.905714285714286      -0.291889190673828     
 -0.902857142857143      -0.300487518310547     
 -0.900000000000000      -0.309074401855469     
 -0.897142857142857      -0.317543029785156     
 -0.894285714285714      -0.326042175292969     
 -0.891428571428571      -0.334510803222656     
 -0.888571428571429      -0.342964172363281     
 -0.885714285714286      -0.351329803466797     
 -0.882857142857143      -0.359771728515625     
 -0.880000000000000      -0.368127822875977     
 -0.877142857142857      -0.376451492309570     
 -0.874285714285714      -0.384756803512573     
 -0.871428571428571      -0.393024921417236     
 -0.868571428571429      -0.401261806488037     
 -0.865714285714286      -0.409473896026611     
 -0.862857142857143      -0.417643547058105     
 -0.860000000000000      -0.425787925720215     
 -0.857142857142857      -0.433881282806396     
 -0.854285714285714      -0.441953659057617     
 -0.851428571428571      -0.449985265731812     
 -0.848571428571429      -0.457983970642090     
 -0.845714285714286      -0.465945482254028     
 -0.842857142857143      -0.473868682980537     
 -0.840000000000000      -0.481753855943680     
 -0.837142857142857      -0.489599168300629     
 -0.834285714285714      -0.497407138347626     
 -0.831428571428571      -0.505172550678253     
 -0.828571428571429      -0.512899696826935     
 -0.825714285714286      -0.520583629608154     
 -0.822857142857143      -0.528226464986801     
 -0.820000000000000      -0.535827085375786     
 -0.817142857142857      -0.543383754789829     
 -0.814285714285714      -0.550896998494864     
 -0.811428571428571      -0.558365819975734     
 -0.808571428571429      -0.565789639949799     
 -0.805714285714286      -0.573167875409126     
 -0.802857142857143      -0.580499947071075     
 -0.800000000000000      -0.587785236537457     
 -0.797142857142857      -0.595023166388273     
 -0.794285714285714      -0.602213207632303     
 -0.791428571428571      -0.609354712069035     
 -0.788571428571429      -0.616447096690536     
 -0.785714285714286      -0.623489808291197     
 -0.782857142857143      -0.630482291802764     
 -0.780000000000000      -0.637423990294337     
 -0.777142857142857      -0.644314333330840     
 -0.774285714285714      -0.651152758859098     
 -0.771428571428571      -0.657938726246357     
 -0.768571428571429      -0.664671692065895     
 -0.765714285714286      -0.671351104043424     
 -0.762857142857143      -0.677976405248046     
 -0.760000000000000      -0.684547105804086     
 -0.757142857142857      -0.691062648547813     
 -0.754285714285714      -0.697522515431046     
 -0.751428571428571      -0.703926182526629     
 -0.748571428571429      -0.710273137025069     
 -0.745714285714286      -0.716562866000459     
 -0.742857142857143      -0.722794864443131     
 -0.740000000000000      -0.728968626470305     
 -0.737142857142857      -0.735083661158569     
 -0.734285714285714      -0.741139467339963     
 -0.731428571428571      -0.747135563637130     
 -0.728571428571429      -0.753071465995163     
 -0.725714285714286      -0.758946694200858     
 -0.722857142857143      -0.764760776160983     
 -0.720000000000000      -0.770513242809102     
 -0.717142857142857      -0.776203631117824     
 -0.714285714285714      -0.781831482308917     
 -0.711428571428571      -0.787396343570435     
 -0.708571428571429      -0.792897766106762     
 -0.705714285714286      -0.798335306491936     
 -0.702857142857143      -0.803708526713308     
 -0.700000000000000      -0.809016994346166     
 -0.697142857142857      -0.814260281258612     
 -0.694285714285714      -0.819437965183170     
 -0.691428571428572      -0.824549628890964     
 -0.688571428571429      -0.829594860591897     
 -0.685714285714286      -0.834573253720009     
 -0.682857142857143      -0.839484407271812     
 -0.680000000000000      -0.844327925482503     
 -0.677142857142857      -0.849103418200684     
 -0.674285714285714      -0.853810500659165     
 -0.671428571428571      -0.858448793635034     
 -0.668571428571429      -0.863017923322332     
 -0.665714285714286      -0.867517521743139     
 -0.662857142857143      -0.871947226250995     
 -0.660000000000000      -0.876306680032030     
 -0.657142857142857      -0.880595531856898     
 -0.654285714285714      -0.884813436148761     
 -0.651428571428571      -0.888960053089249     
 -0.648571428571429      -0.893035048615275     
 -0.645714285714286      -0.897038094390155     
 -0.642857142857143      -0.900968867897063     
 -0.640000000000000      -0.904827052468136     
 -0.637142857142857      -0.908612337248087     
 -0.634285714285714      -0.912324417225136     
 -0.631428571428571      -0.915962993386074     
 -0.628571428571429      -0.919527772550055     
 -0.625714285714286      -0.923018467515362     
 -0.622857142857143      -0.926434797043953     
 -0.620000000000000      -0.929776485889988     
 -0.617142857142857      -0.933043264816661     
 -0.614285714285714      -0.936234870639055     
 -0.611428571428571      -0.939351046209140     
 -0.608571428571429      -0.942391540464541     
 -0.605714285714286      -0.945356108440137     
 -0.602857142857143      -0.948244511288294     
 -0.600000000000000      -0.951056516294784     
 -0.597142857142857      -0.953791896906523     
 -0.594285714285714      -0.956450432738613     
 -0.591428571428571      -0.959031909598821     
 -0.588571428571429      -0.961536119504672     
 -0.585714285714286      -0.963962860696938     
 -0.582857142857143      -0.966311937656656     
 -0.580000000000000      -0.968583161128890     
 -0.577142857142857      -0.970776348123081     
 -0.574285714285714      -0.972891321939642     
 -0.571428571428571      -0.974927912181613     
 -0.568571428571429      -0.976885954765123     
 -0.565714285714286      -0.978765291933598     
 -0.562857142857143      -0.980565772275224     
 -0.560000000000000      -0.982287250728618     
 -0.557142857142857      -0.983929588598670     
 -0.554285714285714      -0.985492653565558     
 -0.551428571428571      -0.986976319697305     
 -0.548571428571429      -0.988380467458683     
 -0.545714285714286      -0.989704983719577     
 -0.542857142857143      -0.990949761767837     
 -0.540000000000000      -0.992114701314478     
 -0.537142857142857      -0.993199708502772     
 -0.534285714285714      -0.994204695916480     
 -0.531428571428571      -0.995129582585912     
 -0.528571428571429      -0.995974293995236     
 -0.525714285714286      -0.996738762087986     
 -0.522857142857143      -0.997422925272758     
 -0.520000000000000      -0.998026728428300     
 -0.517142857142857      -0.998550122907346     
 -0.514285714285714      -0.998993066541288     
 -0.511428571428571      -0.999355523643338     
 -0.508571428571429      -0.999637465011041     
 -0.505714285714286      -0.999838867929014     
 -0.502857142857143      -0.999959716170872     
 -0.500000000000000       -1.00000000000000     
 -0.497142857142857      -0.999959716170871     
 -0.494285714285714      -0.999838867929061     
 -0.491428571428571      -0.999637465011023     
 -0.488571428571429      -0.999355523643331     
 -0.485714285714286      -0.998993066541303     
 -0.482857142857143      -0.998550122907357     
 -0.480000000000000      -0.998026728428258     
 -0.477142857142857      -0.997422925272826     
 -0.474285714285714      -0.996738762088006     
 -0.471428571428571      -0.995974293995241     
 -0.468571428571429      -0.995129582585909     
 -0.465714285714286      -0.994204695916455     
 -0.462857142857143      -0.993199708502813     
 -0.460000000000000      -0.992114701314488     
 -0.457142857142857      -0.990949761767929     
 -0.454285714285714      -0.989704983719628     
 -0.451428571428571      -0.988380467458430     
 -0.448571428571429      -0.986976319697495     
 -0.445714285714286      -0.985492653565720     
 -0.442857142857143      -0.983929588598621     
 -0.440000000000000      -0.982287250728687     
 -0.437142857142857      -0.980565772275222     
 -0.434285714285714      -0.978765291933712     
 -0.431428571428571      -0.976885954764649     
 -0.428571428571429      -0.974927912181826     
 -0.425714285714286      -0.972891321940143     
 -0.422857142857143      -0.970776348122913     
 -0.420000000000000      -0.968583161128628     
 -0.417142857142857      -0.966311937657221     
 -0.414285714285714      -0.963962860695857     
 -0.411428571428571      -0.961536119504149     
 -0.408571428571429      -0.959031909598965     
 -0.405714285714286      -0.956450432738633     
 -0.402857142857143      -0.953791896906692     
 -0.400000000000000      -0.951056516295151     
 -0.397142857142857      -0.948244511287228     
 -0.394285714285714      -0.945356108439564     
 -0.391428571428571      -0.942391540464035     
 -0.388571428571429      -0.939351046208925     
 -0.385714285714286      -0.936234870639736     
 -0.382857142857143      -0.933043264819446     
 -0.380000000000000      -0.929776485888250     
 -0.377142857142857      -0.926434797042889     
 -0.374285714285714      -0.923018467515398     
 -0.371428571428571      -0.919527772551451     
 -0.368571428571429      -0.915962993388167     
 -0.365714285714286      -0.912324417231453     
 -0.362857142857143      -0.908612337232875     
 -0.360000000000000      -0.904827052466020     
 -0.357142857142857      -0.900968867902420     
 -0.354285714285714      -0.897038094386970     
 -0.351428571428571      -0.893035048612886     
 -0.348571428571429      -0.888960053096193     
 -0.345714285714286      -0.884813436149738     
 -0.342857142857143      -0.880595531856739     
 -0.340000000000000      -0.876306680043862     
 -0.337142857142857      -0.871947226253862     
 -0.334285714285714      -0.867517521717718     
 -0.331428571428571      -0.863017923326349     
 -0.328571428571429      -0.858448793601867     
 -0.325714285714286      -0.853810500668346     
 -0.322857142857143      -0.849103418222194     
 -0.320000000000000      -0.844327925502016     
 -0.317142857142857      -0.839484407258078     
 -0.314285714285714      -0.834573253721303     
 -0.311428571428571      -0.829594860571830     
 -0.308571428571429      -0.824549628907141     
 -0.305714285714286      -0.819437965209731     
 -0.302857142857143      -0.814260281314380     
 -0.300000000000000      -0.809016994374946     
 -0.297142857142857      -0.803708526830789     
 -0.294285714285714      -0.798335306372702     
 -0.291428571428571      -0.792897765908475     
 -0.288571428571429      -0.787396343528013     
 -0.285714285714286      -0.781831482468030     
 -0.282857142857143      -0.776203631076353     
 -0.280000000000000      -0.770513242775789     
 -0.277142857142857      -0.764760776027598     
 -0.274285714285714      -0.758946694294555     
 -0.271428571428571      -0.753071466003610     
 -0.268571428571429      -0.747135564508150     
 -0.265714285714286      -0.741139468049854     
 -0.262857142857143      -0.735083659720177     
 -0.260000000000000      -0.728968627421411     
 -0.257142857142857      -0.722794863827391     
 -0.254285714285714      -0.716562866343792     
 -0.251428571428571      -0.710273137068056     
 -0.248571428571429      -0.703926182748945     
 -0.245714285714286      -0.697522514745701     
 -0.242857142857143      -0.691062648986865     
 -0.240000000000000      -0.684547105928689     
 -0.237142857142857      -0.677976410513221     
 -0.234285714285714      -0.671351092126005     
 -0.231428571428571      -0.664671684553425     
 -0.228571428571429      -0.657938725939713     
 -0.225714285714286      -0.651152758743574     
 -0.222857142857143      -0.644314329694494     
 -0.220000000000000      -0.637423989748689     
 -0.217142857142857      -0.630482294044713     
 -0.214285714285714      -0.623489801858734     
 -0.211428571428571      -0.616447076559470     
 -0.208571428571429      -0.609354685562808     
 -0.205714285714286      -0.602213200286082     
 -0.202857142857143      -0.595023196102037     
 -0.200000000000000      -0.587785252292472     
 -0.197142857142857      -0.580499952001573     
 -0.194285714285714      -0.573167882188923     
 -0.191428571428571      -0.565789633582214     
 -0.188571428571429      -0.558365800629662     
 -0.185714285714286      -0.550896981452102     
 -0.182857142857143      -0.543383777794806     
 -0.180000000000000      -0.535826794978997     
 -0.177142857142857      -0.528226641853084     
 -0.174285714285714      -0.520583930743609     
 -0.171428571428571      -0.512899277405906     
 -0.168571428571429      -0.505173300974501     
 -0.165714285714286      -0.497406623913222     
 -0.162857142857143      -0.489599871965052     
 -0.160000000000000      -0.481753674101715     
 -0.157142857142857      -0.473868662472999     
 -0.154285714285714      -0.465945472355825     
 -0.151428571428571      -0.457984742103067     
 -0.148571428571429      -0.449987113092121     
 -0.145714285714286      -0.441953229673227     
 -0.142857142857143      -0.433883739117558     
 -0.140000000000000      -0.425779291565073     
 -0.137142857142857      -0.417640539972131     
 -0.134285714285714      -0.409468140058891     
 -0.131428571428571      -0.401262750256474     
 -0.128571428571429      -0.393025031653923     
 -0.125714285714286      -0.384755647944936     
 -0.122857142857143      -0.376455265374392     
 -0.120000000000000      -0.368124552684678     
 -0.117142857142857      -0.359764181061807     
 -0.114285714285714      -0.351374824081343     
 -0.111428571428571      -0.342957157654131     
 -0.108571428571429      -0.334511859971845     
 -0.105714285714286      -0.326039611452342     
 -0.102857142857143      -0.317541094684844     
 -0.100000000000000      -0.309016994374947     
 -9.714285714285720E-002 -0.300467997289452     
 -9.428571428571431E-002 -0.291894792201033     
 -9.142857142857141E-002 -0.283298069832749     
 -8.857142857142852E-002 -0.274678522802390     
 -8.571428571428574E-002 -0.266036845566675     
 -8.285714285714285E-002 -0.257373734365302     
 -7.999999999999996E-002 -0.248689887164855     
 -7.714285714285718E-002 -0.239986003602566     
 -7.428571428571429E-002 -0.231262784929952     
 -7.142857142857140E-002 -0.222520933956315     
 -6.857142857142862E-002 -0.213761154992114     
 -6.571428571428573E-002 -0.204984153792231     
 -6.285714285714283E-002 -0.196190637499095     
 -6.000000000000005E-002 -0.187381314585725     
 -5.714285714285716E-002 -0.178556894798637     
 -5.428571428571427E-002 -0.169718089100669     
 -5.142857142857138E-002 -0.160865609613698     
 -4.857142857142860E-002 -0.152000169561267     
 -4.571428571428571E-002 -0.143122483211120     
 -4.285714285714282E-002 -0.134233265817655     
 -4.000000000000004E-002 -0.125333233564304     
 -3.714285714285714E-002 -0.116423103505823     
 -3.428571428571425E-002 -0.107503593510525     
 -3.142857142857147E-002 -9.857542220244364E-002
 -2.857142857142858E-002 -8.963930890343355E-002
 -2.571428571428569E-002 -8.069597357521717E-002
 -2.285714285714291E-002 -7.174613676137954E-002
 -2.000000000000002E-002 -6.279051952931339E-002
 -1.714285714285713E-002 -5.382984341212818E-002
 -1.428571428571423E-002 -4.486483035051478E-002
 -1.142857142857145E-002 -3.589620263458226E-002
 -8.571428571428563E-003 -2.692468284566280E-002
 -5.714285714285672E-003 -1.795099379809714E-002
 -2.857142857142891E-003 -8.975858480998057E-003
  0.000000000000000E+000  0.000000000000000E+000
  2.857142857142891E-003  8.975858480998078E-003
  5.714285714285783E-003  1.795099379809748E-002
  8.571428571428674E-003  2.692468284566317E-002
  1.142857142857134E-002  3.589620263458186E-002
  1.428571428571423E-002  4.486483035051470E-002
  1.714285714285713E-002  5.382984341212821E-002
  2.000000000000002E-002  6.279051952931339E-002
  2.285714285714291E-002  7.174613676137946E-002
  2.571428571428580E-002  8.069597357521748E-002
  2.857142857142847E-002  8.963930890343320E-002
  3.142857142857136E-002  9.857542220244327E-002
  3.428571428571425E-002  0.107503593510525     
  3.714285714285714E-002  0.116423103505823     
  4.000000000000004E-002  0.125333233564304     
  4.285714285714293E-002  0.134233265817656     
  4.571428571428582E-002  0.143122483211120     
  4.857142857142849E-002  0.152000169561267     
  5.142857142857138E-002  0.160865609613698     
  5.428571428571427E-002  0.169718089100669     
  5.714285714285716E-002  0.178556894798637     
  6.000000000000005E-002  0.187381314585725     
  6.285714285714294E-002  0.196190637499095     
  6.571428571428561E-002  0.204984153792230     
  6.857142857142851E-002  0.213761154992114     
  7.142857142857140E-002  0.222520933956314     
  7.428571428571429E-002  0.231262784929952     
  7.714285714285718E-002  0.239986003602566     
  8.000000000000007E-002  0.248689887164855     
  8.285714285714296E-002  0.257373734365303     
  8.571428571428563E-002  0.266036845566675     
  8.857142857142852E-002  0.274678522802390     
  9.142857142857141E-002  0.283298069832750     
  9.428571428571431E-002  0.291894792201033     
  9.714285714285720E-002  0.300467997289452     
  0.100000000000000       0.309016994374947     
  0.102857142857143       0.317541094684844     
  0.105714285714286       0.326039611452342     
  0.108571428571429       0.334511859971845     
  0.111428571428571       0.342957157654131     
  0.114285714285714       0.351374824081343     
  0.117142857142857       0.359764181061807     
  0.120000000000000       0.368124552684678     
  0.122857142857143       0.376455265374391     
  0.125714285714286       0.384755647944936     
  0.128571428571429       0.393025031653924     
  0.131428571428571       0.401262750256475     
  0.134285714285714       0.409468140058891     
  0.137142857142857       0.417640539972131     
  0.140000000000000       0.425779291565073     
  0.142857142857143       0.433883739117558     
  0.145714285714286       0.441953229673227     
  0.148571428571429       0.449987113092121     
  0.151428571428571       0.457984742103068     
  0.154285714285714       0.465945472355825     
  0.157142857142857       0.473868662472999     
  0.160000000000000       0.481753674101715     
  0.162857142857143       0.489599871965053     
  0.165714285714286       0.497406623913222     
  0.168571428571429       0.505173300974502     
  0.171428571428571       0.512899277405906     
  0.174285714285714       0.520583930743609     
  0.177142857142857       0.528226641853084     
  0.180000000000000       0.535826794978997     
  0.182857142857143       0.543383777794806     
  0.185714285714286       0.550896981452103     
  0.188571428571429       0.558365800629663     
  0.191428571428572       0.565789633582215     
  0.194285714285714       0.573167882188923     
  0.197142857142857       0.580499952001573     
  0.200000000000000       0.587785252292473     
  0.202857142857143       0.595023196102037     
  0.205714285714286       0.602213200286082     
  0.208571428571429       0.609354685562808     
  0.211428571428572       0.616447076559470     
  0.214285714285714       0.623489801858733     
  0.217142857142857       0.630482294044713     
  0.220000000000000       0.637423989748690     
  0.222857142857143       0.644314329694494     
  0.225714285714286       0.651152758743574     
  0.228571428571429       0.657938725939713     
  0.231428571428572       0.664671684553426     
  0.234285714285714       0.671351092126004     
  0.237142857142857       0.677976410513221     
  0.240000000000000       0.684547105928689     
  0.242857142857143       0.691062648986865     
  0.245714285714286       0.697522514745703     
  0.248571428571429       0.703926182748944     
  0.251428571428571       0.710273137068057     
  0.254285714285714       0.716562866343792     
  0.257142857142857       0.722794863827392     
  0.260000000000000       0.728968627421411     
  0.262857142857143       0.735083659720177     
  0.265714285714286       0.741139468049855     
  0.268571428571428       0.747135564508149     
  0.271428571428571       0.753071466003611     
  0.274285714285714       0.758946694294555     
  0.277142857142857       0.764760776027598     
  0.280000000000000       0.770513242775789     
  0.282857142857143       0.776203631076352     
  0.285714285714286       0.781831482468031     
  0.288571428571428       0.787396343528012     
  0.291428571428571       0.792897765908475     
  0.294285714285714       0.798335306372701     
  0.297142857142857       0.803708526830788     
  0.300000000000000       0.809016994374948     
  0.302857142857143       0.814260281314379     
  0.305714285714286       0.819437965209733     
  0.308571428571428       0.824549628907141     
  0.311428571428571       0.829594860571831     
  0.314285714285714       0.834573253721302     
  0.317142857142857       0.839484407258077     
  0.320000000000000       0.844327925502015     
  0.322857142857143       0.849103418222196     
  0.325714285714286       0.853810500668347     
  0.328571428571429       0.858448793601866     
  0.331428571428571       0.863017923326349     
  0.334285714285714       0.867517521717718     
  0.337142857142857       0.871947226253863     
  0.340000000000000       0.876306680043864     
  0.342857142857143       0.880595531856738     
  0.345714285714286       0.884813436149738     
  0.348571428571429       0.888960053096193     
  0.351428571428571       0.893035048612885     
  0.354285714285714       0.897038094386967     
  0.357142857142857       0.900968867902419     
  0.360000000000000       0.904827052466021     
  0.362857142857143       0.908612337232875     
  0.365714285714286       0.912324417231454     
  0.368571428571429       0.915962993388166     
  0.371428571428571       0.919527772551451     
  0.374285714285714       0.923018467515397     
  0.377142857142857       0.926434797042888     
  0.380000000000000       0.929776485888253     
  0.382857142857143       0.933043264819445     
  0.385714285714286       0.936234870639739     
  0.388571428571429       0.939351046208924     
  0.391428571428571       0.942391540464036     
  0.394285714285714       0.945356108439569     
  0.397142857142857       0.948244511287228     
  0.400000000000000       0.951056516295154     
  0.402857142857143       0.953791896906691     
  0.405714285714286       0.956450432738633     
  0.408571428571429       0.959031909598965     
  0.411428571428571       0.961536119504149     
  0.414285714285714       0.963962860695854     
  0.417142857142857       0.966311937657226     
  0.420000000000000       0.968583161128632     
  0.422857142857143       0.970776348122918     
  0.425714285714286       0.972891321940151     
  0.428571428571429       0.974927912181833     
  0.431428571428571       0.976885954764651     
  0.434285714285714       0.978765291933714     
  0.437142857142857       0.980565772275220     
  0.440000000000000       0.982287250728689     
  0.442857142857143       0.983929588598627     
  0.445714285714286       0.985492653565729     
  0.448571428571429       0.986976319697499     
  0.451428571428572       0.988380467458434     
  0.454285714285714       0.989704983719649     
  0.457142857142857       0.990949761767940     
  0.460000000000000       0.992114701314470     
  0.462857142857143       0.993199708502810     
  0.465714285714286       0.994204695916456     
  0.468571428571429       0.995129582585912     
  0.471428571428572       0.995974293995242     
  0.474285714285714       0.996738762088020     
  0.477142857142857       0.997422925272812     
  0.480000000000000       0.998026728428307     
  0.482857142857143       0.998550122907336     
  0.485714285714286       0.998993066541335     
  0.488571428571429       0.999355523643302     
  0.491428571428571       0.999637465011002     
  0.494285714285714       0.999838867929068     
  0.497142857142857       0.999959716170874     
  0.500000000000000        1.00000000000000     
  0.502857142857143       0.999959716170876     
  0.505714285714286       0.999838867929068     
  0.508571428571429       0.999637465011027     
  0.511428571428571       0.999355523643437     
  0.514285714285714       0.998993066541288     
  0.517142857142857       0.998550122907247     
  0.520000000000000       0.998026728428144     
  0.522857142857143       0.997422925272787     
  0.525714285714286       0.996738762088057     
  0.528571428571428       0.995974293995218     
  0.531428571428571       0.995129582585911     
  0.534285714285714       0.994204695916480     
  0.537142857142857       0.993199708502772     
  0.540000000000000       0.992114701314591     
  0.542857142857143       0.990949761767865     
  0.545714285714286       0.989704983719804     
  0.548571428571428       0.988380467458512     
  0.551428571428571       0.986976319697305     
  0.554285714285714       0.985492653565871     
  0.557142857142857       0.983929588598812     
  0.560000000000000       0.982287250728575     
  0.562857142857143       0.980565772275234     
  0.565714285714286       0.978765291933584     
  0.568571428571429       0.976885954764526     
  0.571428571428571       0.974927912181329     
  0.574285714285714       0.972891321939755     
  0.577142857142857       0.970776348122854     
  0.580000000000000       0.968583161129345     
  0.582857142857143       0.966311937656997     
  0.585714285714286       0.963962860695574     
  0.588571428571429       0.961536119503933     
  0.591428571428571       0.959031909598991     
  0.594285714285714       0.956450432738613     
  0.597142857142857       0.953791896906864     
  0.600000000000000       0.951056516295466     
  0.602857142857143       0.948244511287839     
  0.605714285714286       0.945356108441274     
  0.608571428571429       0.942391540464087     
  0.611428571428571       0.939351046207321     
  0.614285714285714       0.936234870640419     
  0.617142857142857       0.933043264823255     
  0.620000000000000       0.929776485890216     
  0.622857142857143       0.926434797042930     
  0.625714285714286       0.923018467515249     
  0.628571428571429       0.919527772550964     
  0.631428571428571       0.915962993385619     
  0.634285714285714       0.912324417237869     
  0.637142857142857       0.908612337237173     
  0.640000000000000       0.904827052452674     
  0.642857142857143       0.900968867899792     
  0.645714285714286       0.897038094394702     
  0.648571428571429       0.893035048619822     
  0.651428571428571       0.888960053091068     
  0.654285714285714       0.884813436144668     
  0.657142857142857       0.880595531858489     
  0.660000000000000       0.876306680046582     
  0.662857142857143       0.871947226245538     
  0.665714285714286       0.867517521721311     
  0.668571428571429       0.863017923315056     
  0.671428571428571       0.858448793627758     
  0.674285714285714       0.853810500680993     
  0.677142857142857       0.849103418237064     
  0.680000000000000       0.844327925537073     
  0.682857142857143       0.839484407242708     
  0.685714285714286       0.834573253727285     
  0.688571428571429       0.829594860582802     
  0.691428571428572       0.824549628930981     
  0.694285714285714       0.819437965270481     
  0.697142857142857       0.814260281302268     
  0.700000000000000       0.809016994273406     
  0.702857142857143       0.803708526917035     
  0.705714285714286       0.798335306404624     
  0.708571428571429       0.792897765670205     
  0.711428571428572       0.787396343541332     
  0.714285714285714       0.781831482498092     
  0.717142857142857       0.776203631015960     
  0.720000000000000       0.770513242816378     
  0.722857142857143       0.764760775928153     
  0.725714285714286       0.758946694724727     
  0.728571428571429       0.753071465878747     
  0.731428571428572       0.747135565150529     
  0.734285714285714       0.741139468271285     
  0.737142857142857       0.735083660692908     
  0.740000000000000       0.728968626819551     