 VARIABLES = "X", "Y", "U"
 ZONE I=          21 , J=          21 ,DATAPACKING=POINT
  -1.00000000000000       -1.00000000000000       0.000000000000000E+000
  -1.00000000000000      -0.968133451622095       5.006993749006645E-003
  -1.00000000000000      -0.881334751433768       6.868805634588801E-002
  -1.00000000000000      -0.764271786586648       0.261910523534925     
  -1.00000000000000      -0.653642386938342       0.535843750133489     
  -1.00000000000000      -0.545511771864039       0.857507211882161     
  -1.00000000000000      -0.436369536137632        1.19857230108848     
  -1.00000000000000      -0.327180849161556        1.51664461978983     
  -1.00000000000000      -0.218154949867251        1.77419504001907     
  -1.00000000000000      -0.109079894803258        1.94185599119294     
  -1.00000000000000       6.199650627245017E-018   2.00000000000000     
  -1.00000000000000       0.109079894803258        1.94185599119294     
  -1.00000000000000       0.218154949867251        1.77419504001907     
  -1.00000000000000       0.327180849161556        1.51664461978983     
  -1.00000000000000       0.436369536137632        1.19857230108848     
  -1.00000000000000       0.545511771864039       0.857507211882161     
  -1.00000000000000       0.653642386938342       0.535843750133489     
  -1.00000000000000       0.764271786586648       0.261910523534925     
  -1.00000000000000       0.881334751433768       6.868805634588801E-002
  -1.00000000000000       0.968133451622095       5.006993749006645E-003
  -1.00000000000000        1.00000000000000       0.000000000000000E+000
 -0.968133451622095       -1.00000000000000       8.496257154325491E-002
 -0.968133451622095      -0.968133451622095       8.947264905019101E-002
 -0.968133451622095      -0.881334751433768       0.146822794091943     
 -0.968133451622095      -0.764271786586648       0.320704850540071     
 -0.968133451622095      -0.653642386938342       0.566748483201919     
 -0.968133451622095      -0.545511771864039       0.854570689778541     
 -0.968133451622095      -0.436369536137632        1.15776548743520     
 -0.968133451622095      -0.327180849161556        1.43785589705496     
 -0.968133451622095      -0.218154949867251        1.66215588972379     
 -0.968133451622095      -0.109079894803258        1.80671830114797     
 -0.968133451622095       6.199650627245017E-018   1.85655336463574     
 -0.968133451622095       0.109079894803258        1.80671830114797     
 -0.968133451622095       0.218154949867251        1.66215588972379     
 -0.968133451622095       0.327180849161556        1.43785589705496     
 -0.968133451622095       0.436369536137632        1.15776548743520     
 -0.968133451622095       0.545511771864039       0.854570689778541     
 -0.968133451622095       0.653642386938342       0.566748483201919     
 -0.968133451622095       0.764271786586648       0.320704850540071     
 -0.968133451622095       0.881334751433768       0.146822794091944     
 -0.968133451622095       0.968133451622095       8.947264905019096E-002
 -0.968133451622095        1.00000000000000       8.496257154325487E-002
 -0.881334751433768       -1.00000000000000       0.273153488338567     
 -0.881334751433768      -0.968133451622095       0.276531842582362     
 -0.881334751433768      -0.881334751433768       0.319463100455186     
 -0.881334751433768      -0.764271786586648       0.449332323823620     
 -0.881334751433768      -0.653642386938342       0.632180540417158     
 -0.881334751433768      -0.545511771864039       0.844329452800542     
 -0.881334751433768      -0.436369536137632        1.06518703695451     
 -0.881334751433768      -0.327180849161556        1.26621530502154     
 -0.881334751433768      -0.218154949867251        1.42470226948652     
 -0.881334751433768      -0.109079894803258        1.52550028970995     
 -0.881334751433768       6.199650627245017E-018   1.55998288236952     
 -0.881334751433768       0.109079894803258        1.52550028970995     
 -0.881334751433768       0.218154949867251        1.42470226948652     
 -0.881334751433768       0.327180849161556        1.26621530502154     
 -0.881334751433768       0.436369536137632        1.06518703695451     
 -0.881334751433768       0.545511771864039       0.844329452800541     
 -0.881334751433768       0.653642386938342       0.632180540417158     
 -0.881334751433768       0.764271786586648       0.449332323823621     
 -0.881334751433768       0.881334751433768       0.319463100455186     
 -0.881334751433768       0.968133451622095       0.276531842582362     
 -0.881334751433768        1.00000000000000       0.273153488338566     
 -0.764271786586648       -1.00000000000000       0.449566357597028     
 -0.764271786586648      -0.968133451622095       0.451833886181621     
 -0.764271786586648      -0.881334751433768       0.480634234738516     
 -0.764271786586648      -0.764271786586648       0.567540254478101     
 -0.764271786586648      -0.653642386938342       0.689331998693904     
 -0.764271786586648      -0.545511771864039       0.829802730265974     
 -0.764271786586648      -0.436369536137632       0.975120019559274     
 -0.764271786586648      -0.327180849161556        1.10664996129298     
 -0.764271786586648      -0.218154949867251        1.20991855092607     
 -0.764271786586648      -0.109079894803258        1.27543420977582     
 -0.764271786586648       6.199650627245017E-018   1.29782196005322     
 -0.764271786586648       0.109079894803258        1.27543420977582     
 -0.764271786586648       0.218154949867251        1.20991855092607     
 -0.764271786586648       0.327180849161556        1.10664996129298     
 -0.764271786586648       0.436369536137632       0.975120019559273     
 -0.764271786586648       0.545511771864039       0.829802730265973     
 -0.764271786586648       0.653642386938342       0.689331998693904     
 -0.764271786586648       0.764271786586648       0.567540254478102     
 -0.764271786586648       0.881334751433768       0.480634234738516     
 -0.764271786586648       0.968133451622095       0.451833886181621     
 -0.764271786586648        1.00000000000000       0.449566357597027     
 -0.653642386938342       -1.00000000000000       0.559396357148153     
 -0.653642386938342      -0.968133451622095       0.560943818709854     
 -0.653642386938342      -0.881334751433768       0.580594942610607     
 -0.653642386938342      -0.764271786586648       0.639823614081398     
 -0.653642386938342      -0.653642386938342       0.722679417584656     
 -0.653642386938342      -0.545511771864039       0.818101812825369     
 -0.653642386938342      -0.436369536137632       0.916785069022265     
 -0.653642386938342      -0.327180849161556        1.00622361480593     
 -0.653642386938342      -0.218154949867251        1.07663265473258     
 -0.653642386938342      -0.109079894803258        1.12143398283008     
 -0.653642386938342       6.199650627245017E-018   1.13677287976752     
 -0.653642386938342       0.109079894803258        1.12143398283008     
 -0.653642386938342       0.218154949867251        1.07663265473258     
 -0.653642386938342       0.327180849161556        1.00622361480593     
 -0.653642386938342       0.436369536137632       0.916785069022265     
 -0.653642386938342       0.545511771864039       0.818101812825369     
 -0.653642386938342       0.653642386938342       0.722679417584657     
 -0.653642386938342       0.764271786586648       0.639823614081399     
 -0.653642386938342       0.881334751433768       0.580594942610608     
 -0.653642386938342       0.968133451622095       0.560943818709853     
 -0.653642386938342        1.00000000000000       0.559396357148152     
 -0.545511771864039       -1.00000000000000       0.631275502491667     
 -0.545511771864039      -0.968133451622095       0.632341697878753     
 -0.545511771864039      -0.881334751433768       0.645881594427702     
 -0.545511771864039      -0.764271786586648       0.686684051790913     
 -0.545511771864039      -0.653642386938342       0.743766700530997     
 -0.545511771864039      -0.545511771864039       0.809564424012814     
 -0.545511771864039      -0.436369536137632       0.877756977137628     
 -0.545511771864039      -0.327180849161556       0.939777255276162     
 -0.545511771864039      -0.218154949867251       0.988809275382381     
 -0.545511771864039      -0.109079894803258        1.02013000774376     
 -0.545511771864039       6.199650627245017E-018   1.03087855953382     
 -0.545511771864039       0.109079894803258        1.02013000774376     
 -0.545511771864039       0.218154949867251       0.988809275382379     
 -0.545511771864039       0.327180849161556       0.939777255276161     
 -0.545511771864039       0.436369536137632       0.877756977137628     
 -0.545511771864039       0.545511771864039       0.809564424012814     
 -0.545511771864039       0.653642386938342       0.743766700530998     
 -0.545511771864039       0.764271786586648       0.686684051790915     
 -0.545511771864039       0.881334751433768       0.645881594427703     
 -0.545511771864039       0.968133451622095       0.632341697878753     
 -0.545511771864039        1.00000000000000       0.631275502491667     
 -0.436369536137632       -1.00000000000000       0.680500370661226     
 -0.436369536137632      -0.968133451622095       0.681238969271222     
 -0.436369536137632      -0.881334751433768       0.690619901030374     
 -0.436369536137632      -0.764271786586648       0.718901273181456     
 -0.436369536137632      -0.653642386938342       0.758508965338519     
 -0.436369536137632      -0.545511771864039       0.804253196358607     
 -0.436369536137632      -0.436369536137632       0.851806312353296     
 -0.436369536137632      -0.327180849161556       0.895227021305657     
 -0.436369536137632      -0.218154949867251       0.929701742180806     
 -0.436369536137632      -0.109079894803258       0.951804504589443     
 -0.436369536137632       6.199650627245017E-018  0.959405832320116     
 -0.436369536137632       0.109079894803258       0.951804504589443     
 -0.436369536137632       0.218154949867251       0.929701742180804     
 -0.436369536137632       0.327180849161556       0.895227021305656     
 -0.436369536137632       0.436369536137632       0.851806312353295     
 -0.436369536137632       0.545511771864039       0.804253196358607     
 -0.436369536137632       0.653642386938342       0.758508965338519     
 -0.436369536137632       0.764271786586648       0.718901273181457     
 -0.436369536137632       0.881334751433768       0.690619901030375     
 -0.436369536137632       0.968133451622095       0.681238969271222     
 -0.436369536137632        1.00000000000000       0.680500370661226     
 -0.327180849161556       -1.00000000000000       0.714713858297894     
 -0.327180849161556      -0.968133451622095       0.715236740896471     
 -0.327180849161556      -0.881334751433768       0.721878939935608     
 -0.327180849161556      -0.764271786586648       0.741915900336734     
 -0.327180849161556      -0.653642386938342       0.770014230342339     
 -0.327180849161556      -0.545511771864039       0.802533258566790     
 -0.327180849161556      -0.436369536137632       0.836435009684187     
 -0.327180849161556      -0.327180849161556       0.867497516781591     
 -0.327180849161556      -0.218154949867251       0.892247140465378     
 -0.327180849161556      -0.109079894803258       0.908161162504586     
 -0.327180849161556       6.199650627245017E-018  0.913643213815846     
 -0.327180849161556       0.109079894803258       0.908161162504586     
 -0.327180849161556       0.218154949867251       0.892247140465377     
 -0.327180849161556       0.327180849161556       0.867497516781589     
 -0.327180849161556       0.436369536137632       0.836435009684187     
 -0.327180849161556       0.545511771864039       0.802533258566790     
 -0.327180849161556       0.653642386938342       0.770014230342340     
 -0.327180849161556       0.764271786586648       0.741915900336735     
 -0.327180849161556       0.881334751433768       0.721878939935609     
 -0.327180849161556       0.968133451622095       0.715236740896471     
 -0.327180849161556        1.00000000000000       0.714713858297894     
 -0.218154949867251       -1.00000000000000       0.739548473084132     
 -0.218154949867251      -0.968133451622095       0.739935657005451     
 -0.218154949867251      -0.881334751433768       0.744854513565077     
 -0.218154949867251      -0.764271786586648       0.759697737183584     
 -0.218154949867251      -0.653642386938342       0.780527939575689     
 -0.218154949867251      -0.545511771864039       0.804663783525989     
 -0.218154949867251      -0.436369536137632       0.829867471709287     
 -0.218154949867251      -0.327180849161556       0.853006739182308     
 -0.218154949867251      -0.218154949867251       0.871481324507002     
 -0.218154949867251      -0.109079894803258       0.883380765491429     
 -0.218154949867251       6.199650627245017E-018  0.887483857594064     
 -0.218154949867251       0.109079894803258       0.883380765491428     
 -0.218154949867251       0.218154949867251       0.871481324507001     
 -0.218154949867251       0.327180849161556       0.853006739182307     
 -0.218154949867251       0.436369536137632       0.829867471709286     
 -0.218154949867251       0.545511771864039       0.804663783525988     
 -0.218154949867251       0.653642386938342       0.780527939575690     
 -0.218154949867251       0.764271786586648       0.759697737183585     
 -0.218154949867251       0.881334751433768       0.744854513565078     
 -0.218154949867251       0.968133451622095       0.739935657005451     
 -0.218154949867251        1.00000000000000       0.739548473084131     
 -0.109079894803258       -1.00000000000000       0.758749126846000     
 -0.109079894803258      -0.968133451622095       0.759060014077151     
 -0.109079894803258      -0.881334751433768       0.763009089673002     
 -0.109079894803258      -0.764271786586648       0.774918468055824     
 -0.109079894803258      -0.653642386938342       0.791613806967425     
 -0.109079894803258      -0.545511771864039       0.810935569328378     
 -0.109079894803258      -0.436369536137632       0.831089743395788     
 -0.109079894803258      -0.327180849161556       0.849576801723549     
 -0.109079894803258      -0.218154949867251       0.864328428138072     
 -0.109079894803258      -0.109079894803258       0.873826907923696     
 -0.109079894803258       6.199650627245017E-018  0.877101693328949     
 -0.109079894803258       0.109079894803258       0.873826907923695     
 -0.109079894803258       0.218154949867251       0.864328428138070     
 -0.109079894803258       0.327180849161556       0.849576801723547     
 -0.109079894803258       0.436369536137632       0.831089743395787     
 -0.109079894803258       0.545511771864039       0.810935569328378     
 -0.109079894803258       0.653642386938342       0.791613806967426     
 -0.109079894803258       0.764271786586648       0.774918468055826     
 -0.109079894803258       0.881334751433768       0.763009089673003     
 -0.109079894803258       0.968133451622095       0.759060014077150     
 -0.109079894803258        1.00000000000000       0.758749126845999     
  6.199650627245017E-018  -1.00000000000000       0.774500148364744     
  6.199650627245017E-018 -0.968133451622095       0.774783596760381     
  6.199650627245017E-018 -0.881334751433768       0.778382215894056     
  6.199650627245017E-018 -0.764271786586648       0.789207836514111     
  6.199650627245017E-018 -0.653642386938342       0.804316201638012     
  6.199650627245017E-018 -0.545511771864039       0.821703732370445     
  6.199650627245017E-018 -0.436369536137632       0.839730348849997     
  6.199650627245017E-018 -0.327180849161556       0.856168610471357     
  6.199650627245017E-018 -0.218154949867251       0.869219684235846     
  6.199650627245017E-018 -0.109079894803258       0.877592700156584     
  6.199650627245017E-018  6.199650627245017E-018  0.880473969673582     
  6.199650627245017E-018  0.109079894803258       0.877592700156583     
  6.199650627245017E-018  0.218154949867251       0.869219684235844     
  6.199650627245017E-018  0.327180849161556       0.856168610471356     
  6.199650627245017E-018  0.436369536137632       0.839730348849996     
  6.199650627245017E-018  0.545511771864039       0.821703732370445     
  6.199650627245017E-018  0.653642386938342       0.804316201638013     
  6.199650627245017E-018  0.764271786586648       0.789207836514113     
  6.199650627245017E-018  0.881334751433768       0.778382215894057     
  6.199650627245017E-018  0.968133451622095       0.774783596760380     
  6.199650627245017E-018   1.00000000000000       0.774500148364743     
  0.109079894803258       -1.00000000000000       0.787785526320556     
  0.109079894803258      -0.968133451622095       0.788088530718479     
  0.109079894803258      -0.881334751433768       0.791931312553124     
  0.109079894803258      -0.764271786586648       0.803433620256624     
  0.109079894803258      -0.653642386938342       0.819340326107458     
  0.109079894803258      -0.545511771864039       0.837434893620174     
  0.109079894803258      -0.436369536137632       0.855954078038503     
  0.109079894803258      -0.327180849161556       0.872626979347791     
  0.109079894803258      -0.218154949867251       0.885717872496932     
  0.109079894803258      -0.109079894803258       0.894047878707231     
  0.109079894803258       6.199650627245017E-018  0.896901920924028     
  0.109079894803258       0.109079894803258       0.894047878707231     
  0.109079894803258       0.218154949867251       0.885717872496930     
  0.109079894803258       0.327180849161556       0.872626979347789     
  0.109079894803258       0.436369536137632       0.855954078038502     
  0.109079894803258       0.545511771864039       0.837434893620173     
  0.109079894803258       0.653642386938342       0.819340326107458     
  0.109079894803258       0.764271786586648       0.803433620256625     
  0.109079894803258       0.881334751433768       0.791931312553125     
  0.109079894803258       0.968133451622095       0.788088530718478     
  0.109079894803258        1.00000000000000       0.787785526320554     
  0.218154949867251       -1.00000000000000       0.798428015586015     
  0.218154949867251      -0.968133451622095       0.798805577230342     
  0.218154949867251      -0.881334751433768       0.803586317694955     
  0.218154949867251      -0.764271786586648       0.817788360122579     
  0.218154949867251      -0.653642386938342       0.837157698587606     
  0.218154949867251      -0.545511771864039       0.858800893429783     
  0.218154949867251      -0.436369536137632       0.880511466419587     
  0.218154949867251      -0.327180849161556       0.899666568653318     
  0.218154949867251      -0.218154949867251       0.914440347662292     
  0.218154949867251      -0.109079894803258       0.923716904728187     
  0.218154949867251       6.199650627245017E-018  0.926872723374668     
  0.218154949867251       0.109079894803258       0.923716904728186     
  0.218154949867251       0.218154949867251       0.914440347662290     
  0.218154949867251       0.327180849161556       0.899666568653317     
  0.218154949867251       0.436369536137632       0.880511466419586     
  0.218154949867251       0.545511771864039       0.858800893429783     
  0.218154949867251       0.653642386938342       0.837157698587606     
  0.218154949867251       0.764271786586648       0.817788360122580     
  0.218154949867251       0.881334751433768       0.803586317694956     
  0.218154949867251       0.968133451622095       0.798805577230341     
  0.218154949867251        1.00000000000000       0.798428015586014     
  0.327180849161556       -1.00000000000000       0.804876822108617     
  0.327180849161556      -0.968133451622095       0.805406010760247     
  0.327180849161556      -0.881334751433768       0.812093124546133     
  0.327180849161556      -0.764271786586648       0.831763012135046     
  0.327180849161556      -0.653642386938342       0.858103977594717     
  0.327180849161556      -0.545511771864039       0.886847132247617     
  0.327180849161556      -0.436369536137632       0.914911696733724     
  0.327180849161556      -0.327180849161556       0.938999453603521     
  0.327180849161556      -0.218154949867251       0.957123653271594     
  0.327180849161556      -0.109079894803258       0.968292971739781     
  0.327180849161556       6.199650627245017E-018  0.972054504409029     
  0.327180849161556       0.109079894803258       0.968292971739781     
  0.327180849161556       0.218154949867251       0.957123653271592     
  0.327180849161556       0.327180849161556       0.938999453603519     
  0.327180849161556       0.436369536137632       0.914911696733723     
  0.327180849161556       0.545511771864039       0.886847132247616     
  0.327180849161556       0.653642386938342       0.858103977594718     
  0.327180849161556       0.764271786586648       0.831763012135047     
  0.327180849161556       0.881334751433768       0.812093124546134     
  0.327180849161556       0.968133451622095       0.805406010760246     
  0.327180849161556        1.00000000000000       0.804876822108616     
  0.436369536137632       -1.00000000000000       0.803617774517285     
  0.436369536137632      -0.968133451622095       0.804422628882765     
  0.436369536137632      -0.881334751433768       0.814567914283509     
  0.436369536137632      -0.764271786586648       0.844040413083570     
  0.436369536137632      -0.653642386938342       0.882607432765974     
  0.436369536137632      -0.545511771864039       0.923440961551613     
  0.436369536137632      -0.436369536137632       0.961950941035429     
  0.436369536137632      -0.327180849161556       0.993836080093478     
  0.436369536137632      -0.218154949867251        1.01705157867472     
  0.436369536137632      -0.109079894803258        1.03100105094161     
  0.436369536137632       6.199650627245017E-018   1.03563431163798     
  0.436369536137632       0.109079894803258        1.03100105094161     
  0.436369536137632       0.218154949867251        1.01705157867472     
  0.436369536137632       0.327180849161556       0.993836080093477     
  0.436369536137632       0.436369536137632       0.961950941035428     
  0.436369536137632       0.545511771864039       0.923440961551613     
  0.436369536137632       0.653642386938342       0.882607432765975     
  0.436369536137632       0.764271786586648       0.844040413083572     
  0.436369536137632       0.881334751433768       0.814567914283510     
  0.436369536137632       0.968133451622095       0.804422628882765     
  0.436369536137632        1.00000000000000       0.803617774517285     
  0.545511771864039       -1.00000000000000       0.787905700666359     
  0.545511771864039      -0.968133451622095       0.789203572956441     
  0.545511771864039      -0.881334751433768       0.805511717344255     
  0.545511771864039      -0.764271786586648       0.852142121560053     
  0.545511771864039      -0.653642386938342       0.911399575550401     
  0.545511771864039      -0.545511771864039       0.971781592693989     
  0.545511771864039      -0.436369536137632        1.02625287786333     
  0.545511771864039      -0.327180849161556        1.06928886787532     
  0.545511771864039      -0.218154949867251        1.09927937640234     
  0.545511771864039      -0.109079894803258        1.11668647693584     
  0.545511771864039       6.199650627245017E-018   1.12235752677875     
  0.545511771864039       0.109079894803258        1.11668647693584     
  0.545511771864039       0.218154949867251        1.09927937640233     
  0.545511771864039       0.327180849161556        1.06928886787532     
  0.545511771864039       0.436369536137632        1.02625287786333     
  0.545511771864039       0.545511771864039       0.971781592693989     
  0.545511771864039       0.653642386938342       0.911399575550401     
  0.545511771864039       0.764271786586648       0.852142121560055     
  0.545511771864039       0.881334751433768       0.805511717344257     
  0.545511771864039       0.968133451622095       0.789203572956441     
  0.545511771864039        1.00000000000000       0.787905700666359     
  0.653642386938342       -1.00000000000000       0.745890254855396     
  0.653642386938342      -0.968133451622095       0.748079712596392     
  0.653642386938342      -0.881334751433768       0.775472518901462     
  0.653642386938342      -0.764271786586648       0.852204603532726     
  0.653642386938342      -0.653642386938342       0.946133922903989     
  0.653642386938342      -0.545511771864039        1.03730874505473     
  0.653642386938342      -0.436369536137632        1.11502490117782     
  0.653642386938342      -0.327180849161556        1.17278360995186     
  0.653642386938342      -0.218154949867251        1.21071455012045     
  0.653642386938342      -0.109079894803258        1.23167825836478     
  0.653642386938342       6.199650627245017E-018   1.23831714734310     
  0.653642386938342       0.109079894803258        1.23167825836478     
  0.653642386938342       0.218154949867251        1.21071455012044     
  0.653642386938342       0.327180849161556        1.17278360995186     
  0.653642386938342       0.436369536137632        1.11502490117782     
  0.653642386938342       0.545511771864039        1.03730874505473     
  0.653642386938342       0.653642386938342       0.946133922903990     
  0.653642386938342       0.764271786586648       0.852204603532728     
  0.653642386938342       0.881334751433768       0.775472518901464     
  0.653642386938342       0.968133451622095       0.748079712596392     
  0.653642386938342        1.00000000000000       0.745890254855396     
  0.764271786586648       -1.00000000000000       0.652158630001555     
  0.764271786586648      -0.968133451622095       0.656100788610429     
  0.764271786586648      -0.881334751433768       0.705073189884805     
  0.764271786586648      -0.764271786586648       0.838352537171661     
  0.764271786586648      -0.653642386938342       0.993465887029975     
  0.764271786586648      -0.545511771864039        1.13471799502631     
  0.764271786586648      -0.436369536137632        1.24644311960367     
  0.764271786586648      -0.327180849161556        1.32281675964365     
  0.764271786586648      -0.218154949867251        1.36880193413599     
  0.764271786586648      -0.109079894803258        1.39230891834427     
  0.764271786586648       6.199650627245017E-018   1.39939940894694     
  0.764271786586648       0.109079894803258        1.39230891834427     
  0.764271786586648       0.218154949867251        1.36880193413598     
  0.764271786586648       0.327180849161556        1.32281675964365     
  0.764271786586648       0.436369536137632        1.24644311960367     
  0.764271786586648       0.545511771864039        1.13471799502631     
  0.764271786586648       0.653642386938342       0.993465887029976     
  0.764271786586648       0.764271786586648       0.838352537171662     
  0.764271786586648       0.881334751433768       0.705073189884806     
  0.764271786586648       0.968133451622095       0.656100788610429     
  0.764271786586648        1.00000000000000       0.652158630001555     
  0.881334751433768       -1.00000000000000       0.445140077220488     
  0.881334751433768      -0.968133451622095       0.453103701486659     
  0.881334751433768      -0.881334751433768       0.550014112320245     
  0.881334751433768      -0.764271786586648       0.801084667468676     
  0.881334751433768      -0.653642386938342        1.07245822327444     
  0.881334751433768      -0.545511771864039        1.29916358724200     
  0.881334751433768      -0.436369536137632        1.46124567406138     
  0.881334751433768      -0.327180849161556        1.55933873526609     
  0.881334751433768      -0.218154949867251        1.61034771569217     
  0.881334751433768      -0.109079894803258        1.63254901240228     
  0.881334751433768       6.199650627245017E-018   1.63848138921359     
  0.881334751433768       0.109079894803258        1.63254901240228     
  0.881334751433768       0.218154949867251        1.61034771569217     
  0.881334751433768       0.327180849161556        1.55933873526609     
  0.881334751433768       0.436369536137632        1.46124567406138     
  0.881334751433768       0.545511771864039        1.29916358724200     
  0.881334751433768       0.653642386938342        1.07245822327444     
  0.881334751433768       0.764271786586648       0.801084667468677     
  0.881334751433768       0.881334751433768       0.550014112320245     
  0.881334751433768       0.968133451622095       0.453103701486659     
  0.881334751433768        1.00000000000000       0.445140077220488     
  0.968133451622095       -1.00000000000000       0.155152499039871     
  0.968133451622095      -0.968133451622095       0.170001455329524     
  0.968133451622095      -0.881334751433768       0.341810752279572     
  0.968133451622095      -0.764271786586648       0.757056435874981     
  0.968133451622095      -0.653642386938342        1.17341747845614     
  0.968133451622095      -0.545511771864039        1.49605591690614     
  0.968133451622095      -0.436369536137632        1.70721188594884     
  0.968133451622095      -0.327180849161556        1.82017626319448     
  0.968133451622095      -0.218154949867251        1.86850027064208     
  0.968133451622095      -0.109079894803258        1.88375715139593     