 VARIABLES = "X", "PI0", "PI1", "PI2", "L0", "L1", "L2"
 ZONE I=         701 ,DATAPACKING=POINT
  -1.00000000000000       0.000000000000000E+000  0.371589120000000     
   10.8837273600000        1.00000000000000        1186.53968253968     
   31154.7936507937     
 -0.997142857142857       1.018014187698840E-003  0.341282357416701     
   10.3344706160634        4.18258690284269        1099.51528615522     
   29769.7776662317     
 -0.994285714285714       1.951651415099169E-003  0.312515493172194     
   9.80569879858643        7.12491402357791        1016.38436313496     
   28429.1817229427     
 -0.991428571428571       2.805228589263924E-003  0.285230847237948     
   9.29682032300851        9.83784743617087        937.021537400078     
   27131.9322896420     
 -0.988571428571429       3.582900213531577E-003  0.259372410667770     
   8.80725697693736        12.3319011647564        861.304471979544     
   25876.9754775350     
 -0.985714285714286       4.288663107776857E-003  0.234885807727161     
   8.33644368577370        14.6172457528075        789.113813270014     
   24663.2767738455     
 -0.982857142857143       4.926361021422018E-003  0.211718258687898     
   7.88382828143225        16.7037166746450        720.333136053392     
   23489.8207778909     
 -0.980000000000000       5.499689141086507E-003  0.189818543279027     
   7.44887127413012        18.6008225914349        654.848889264888     
   22355.6109396889     
 -0.977142857142857       6.012198494738468E-003  0.169136964785537     
   7.03104562721305        20.3177534538044        592.550342504290     
   21259.6693010800     
 -0.974285714285714       6.467300254185862E-003  0.149625314786082     
   6.62983653499114        21.8633884531822        533.329533283317     
   20201.0362393504     
 -0.971428571428571       6.868269937721088E-003  0.131236838521195     
   6.24474120355509        23.2463038239503        477.081215001916     
   19178.7702133404     
 -0.968571428571429       7.218251514708014E-003  0.113926200883517     
   5.87526863454485        24.4747804984744        423.702805646454     
   18191.9475120227     
 -0.965714285714286       7.520261413877057E-003  9.764945302164575E-002
   5.52093941184203        25.5568116170600        373.094337202721     
   17239.6620055362     
 -0.962857142857143       7.777192437069294E-003  8.236399954928900E-002
   5.18128549115816        26.5001098948606        325.158405776787     
   16321.0248986585     
 -0.960000000000000       7.991817580147272E-003  6.802856635149558E-002
   4.85584999249084        27.3121148477440        279.800122416761     
   15435.1644867048     
 -0.957142857142857       8.166793762767001E-003  5.460316897980079E-002
   4.54418699541994        27.9999998791056        236.927064628530     
   14581.2259138347     
 -0.954285714285714       8.304665468681974E-003  4.204908162821497E-002
   4.24586133721620        28.5706792295950        196.449228578615     
   13758.3709337554     
 -0.951428571428571       8.407868298227417E-003  3.032880668206450E-002
   3.96044841373507        29.0308147917040        158.278981977355     
   12965.7776728033     
 -0.948571428571429       8.478732434610116E-003  1.940604483175664E-002
   3.68753398306810        29.3868227911450        122.331017635593     
   12202.6403953917     
 -0.945714285714286       8.519486025606782E-003  9.245665743633152E-003
   3.42671397192515        29.6448803369287        88.5223076881619     
   11468.1692718075     
 -0.942857142857143       8.532258482251351E-003  1.863207198474215E-004
   3.17759428472037        29.8109318420319        56.7720584774724     
   10761.5901483437     
 -0.940000000000000       8.519083696069874E-003  8.922792738293529E-003
   2.93979061533510        29.8906953165260        30.3461023812914     
   10082.1443197524     
 -0.937142857142857       8.481903176399573E-003  1.699554423753468E-002
   2.71292826153127        29.8896685350189        37.3415606052461     
   9429.08830400318     
 -0.934285714285714       8.422569109307079E-003  2.443531206728453E-002
   2.49664194198874        29.8131350802439        55.2985722923447     
   8801.69361933293     
 -0.931428571428571       8.342847339599455E-003  3.127180265976801E-002
   2.29057561594048        29.6661702646099        76.3780920794106     
   8199.24656357183     
 -0.928571428571429       8.244420277400402E-003  3.753371817670300E-002
   2.09438230537926        29.4536469315101        96.4357090088203     
   7621.04799573130     
 -0.925714285714286       8.128889730742959E-003  4.324878215194394E-002
   1.90772391981024        29.1802411381665        114.985367216848     
   7066.41311983918     
 -0.922857142857143       7.997779665609469E-003  4.844376463702228E-002
   1.73027108352346        28.8504377217696        132.090096766178     
   6534.67127100787     
 -0.920000000000000       7.852538894828648E-003  5.314450685675171E-002
   1.56170296536072        28.4685357506560        147.811107571809     
   6025.16570372064     
 -0.917142857142857       7.694543697219574E-003  5.737594538198587E-002
   1.40170711095151        28.0386538622455        162.207827543228     
   5537.25338232190     
 -0.914285714285714       7.525100368352099E-003  6.116213582654544E-002
   1.24997927739257        27.5647354894446        175.337940148460     
   5070.30477369717     
 -0.911428571428571       7.345447704273173E-003  6.452627607526397E-002
   1.10622327034610        27.0505539772031        187.257421406086     
   4623.70364212823     
 -0.908571428571429       7.156759419529000E-003  6.749072905002540E-002
  0.970150783531700        26.4997175908941        198.800473980327     
   4196.84684630909     
 -0.905714285714286       6.960146500793295E-003  7.007704502059592E-002
  0.841481240587128        25.9156744181699        209.837699736122     
   3789.14413850900     
 -0.902857142857143       6.756659497392516E-003  7.230598346698533E-002
  0.719941639273450        25.3017171659278        219.749119128384     
   3400.01796586774     
 -0.900000000000000       6.547290749999999E-003  7.419753450000000E-002
  0.605266398000000        24.6609878540039        228.586663140191     
   3028.90327380953     
 -0.897142857142857       6.332976558751759E-003  7.577093984658076E-002
  0.497197204644906        23.9964824071950        236.400673154383     
   2675.24731156100     
 -0.894285714285714       6.114599292018200E-003  7.704471340644978E-002
  0.395482867647098        23.3110551471915        243.239935709643     
   2338.50943975974     
 -0.891428571428571       5.892989437047236E-003  7.803666138652263E-002
  0.299879169345760        22.6074231859877        249.151716711434     
   2018.16094013881     
 -0.888571428571429       5.668927593676059E-003  7.876390201947321E-002
  0.210148721543453        21.8881707223175        254.181795103692     
   1713.68482727359     
 -0.885714285714286       5.443146412290795E-003  7.924288487276891E-002
  0.126060823269296        21.1557532426496        258.374496007121     
   1424.57566237717     
 -0.882857142857143       5.216332477194993E-003  7.948940975443108E-002
  4.739132071865147E-002   20.4125016282564        261.772723329930     
   1150.33936912999     
 -0.880000000000000       4.989128136530380E-003  7.951864522170433E-002
  2.607753065398279E-002   19.6606261698560        264.417991856762     
   890.493051530158     
 -0.877142857142857       4.762133279875774E-003  7.934514669875356E-002
  9.455720191202290E-002   18.9022204913108        266.350458821581     
   644.707958867483     
 -0.874285714285714       4.535907064632388E-003  7.898287420944247E-002
  0.158253024306859        18.1392653838475        267.608954970201     
   463.829498984010     
 -0.871428571428571       4.310969592286792E-003  7.844520973118037E-002
  0.217364320863756        17.3736325522496        268.231015118127     
   429.696824499833     
 -0.868571428571429       4.087803535625822E-003  7.774497417575926E-002
  0.272084535906280        16.6070882744567        268.252908209317     
   500.325063735494     
 -0.865714285714286       3.866855717960597E-003  7.689444400303964E-002
  0.322601362541849        15.8412969759868        267.709666881466     
   604.454627456643     
 -0.862857142857143       3.648538645400521E-003  7.590536747327768E-002
  0.369096868130751        15.0778247205858        266.635116543344     
   730.542582139077     
 -0.860000000000000       3.433231993201414E-003  7.478898054382346E-002
  0.411747617760907        14.3181426184885        265.061903969694     
   847.884966299902     
 -0.857142857142857       3.221284047195879E-003  7.355602241585762E-002
  0.450724795750422        13.5636301536635        263.021525419166     
   956.807242272115     
 -0.854285714285714       3.013013101297568E-003  7.221675073676816E-002
  0.486194325199916        12.8155784313950        260.544354280704     
   1068.47673840118     
 -0.851428571428571       2.808708812055550E-003  7.078095646371016E-002
  0.518316985616336        12.0751933475432        257.659668253787     
   1193.18003057109     
 -0.848571428571429       2.608633511218759E-003  6.925797839382593E-002
  0.547248528629948        11.3435986808056        254.395676067871     
   1308.71935403868     
 -0.845714285714286       2.413023477255332E-003  6.765671736654445E-002
  0.573139791825938        10.6218391092896        250.779543746347     
   1415.44070856513     
 -0.842857142857143       2.222090166755971E-003  6.598565014331467E-002
  0.596136810711959        9.91088315268889        246.837420420296     
   1513.68142578798     
 -0.840000000000000       2.036021406635494E-003  6.425284297007032E-002
  0.616380928842793        9.21162604134398        242.594463697270     
   1603.77031982222     
 -0.837142857142857       1.854982548031425E-003  6.246596482765995E-002
  0.634008906123154        8.52489251344954        238.074864590316     
   1686.02783609083     
 -0.834285714285714       1.679117582783808E-003  6.063230037541753E-002
  0.649153025309500        7.85143954165789        233.301872012389     
   1760.76619839756     
 -0.831428571428571       1.508550223365723E-003  5.875876259299195E-002
  0.661941196731572        7.19195899031366        228.297816841298     
   1828.28955425470     
 -0.828571428571429       1.343384947119258E-003  5.685190512548928E-002
  0.672497061254240        6.54708020453854        223.084135560257     
   1888.89411847854     
 -0.825714285714286       1.183708005637561E-003  5.491793433692867E-002
  0.680940091500081        5.91737253237205        217.681393479111     
   1942.86831506535     
 -0.822857142857143       1.029588400119223E-003  5.296272107695092E-002
  0.687385691352951        5.30334778115890        212.109307541235     
   1990.49291736028     
 -0.820000000000000       8.810788235073669E-004  5.099181216566366E-002
  0.691945293762708        4.70546260935991        206.386768721103     
   2032.04118653198     
 -0.817142857142857       7.382165702117359E-004  4.901044160144648E-002
  0.694726456871040        4.12412085494850        200.531864017446     
   2070.33935774461     
 -0.814285714285714       6.010244141986333E-004  4.702354149648666E-002
  0.695832958478246        3.55967580154177        194.561898046929     
   2107.67190937114     
 -0.811428571428571       4.695114562197689E-004  4.503575274475573E-002
  0.695364888870673        3.01243238339996        188.493414243196     
   2139.34502721982     
 -0.808571428571429       3.436739409378743E-004  4.305143542708385E-002
  0.693418742028328        2.48264933041544        182.342215666125     
   2165.61424554454     
 -0.805714285714286       2.234960446936008E-004  4.107467895793133E-002
  0.690087505232085        1.97054125419761        176.123385426087     
   2186.72801692648     
 -0.802857142857143       1.089506346452729E-004  3.910931197840387E-002
  0.685460747089736        1.47628067634730        169.851306727968     
   2202.92784452783     
 -0.800000000000000       0.000000000000000E+000  3.715891200000002E-002
  0.679624704000000        1.00000000000000        163.539682539683     
   2214.44841269841     
 -0.797142857142857       1.034034439579653E-004  3.522681480352747E-002
  0.672662365073452        1.40612180848185        157.201554889861     
   2221.51771594766     
 -0.794285714285714       2.013164783483422E-004  3.331612359757097E-002
  0.664653555529208        1.79448222306744        150.849323799363     
   2224.35718629437     
 -0.791428571428571       2.938044290046902E-004  3.142971794083819E-002
  0.655675018586040        2.16509755370090        144.494765851245     
   2223.18181900675     
 -0.788571428571429       3.809405399444497E-004  2.957026243266042E-002
  0.645800495866471        2.51801454396956        138.149052403749     
   2218.20029674509     
 -0.785714285714286       4.628053713428293E-004  2.774021517586900E-002
  0.635100806332239        2.85330874412951        131.822767450862     
   2209.61511211947     
 -0.782857142857143       5.394862213661004E-004  2.594183601621919E-002
  0.623643923769408        3.17108293293304        125.525925134975     
   2197.62268867466     
 -0.780000000000000       6.110765712318348E-004  2.417719456247694E-002
  0.611495052841221        3.47146558729853        119.267986916082     
   2182.41350031460     
 -0.777142857142857       6.776755528751458E-004  2.244817799123795E-002
  0.598716703726699        3.75460939887484        113.057878402003     
   2164.17218917861     
 -0.774285714285714       7.393874386117005E-004  2.075649864049146E-002
  0.585368765362805        4.02068983656567        106.904005843995     
   2143.07768198153     
 -0.771428571428571       7.963211521995469E-004  1.910370139589540E-002
  0.571508577307890        4.26990375409089        100.814272302157     
   2119.30330482980     
 -0.768571428571429       8.485898007131345E-004  1.749117087367531E-002
  0.557191000243974        4.50246804167408        94.7960934849439     
   2093.01689652570     
 -0.765714285714286       8.963102266539539E-004  1.592013840401275E-002
  0.542468485135298        4.71861832095782        88.8564132671048     
   2064.38092037170     
 -0.762857142857143       9.396025797332631E-004  1.439168881873639E-002
  0.527391141060422        4.91860768225994        83.0017188903042     
   2033.55257448693     
 -0.760000000000000       9.785899077731362E-004  1.290676704708133E-002
  0.512006801735025        5.10270546329601        77.2380558506666     
   2000.68390064762     
 -0.757142857142857       1.013397766182769E-003  1.146618452323425E-002
  0.496361090742438        5.27119606850481        71.5710424774437     
   1965.92189166362     
 -0.754285714285714       1.044153845477561E-003  1.007062540933084E-002
  0.480497485488759        5.42437782812559        66.0058842069672     
   1929.40859730262     
 -0.751428571428571       1.070987616318866E-003  8.720652637526827E-003
  0.464457379899323        5.56256189618709        60.5473875560223     
   1891.28122877398     
 -0.748571428571429       1.094029991562597E-003  7.416713774714089E-003
  0.448280145873113        5.68607118658000        55.1999737987395     
   1851.67226178402     
 -0.745714285714286       1.113413004814985E-003  6.159146713408191E-003
  0.432003193511615        5.79523934639588        49.9676923510701     
   1810.70953817430     
 -0.742857142857143       1.129269505003857E-003  4.948185192283918E-003
  0.415662030138424        5.89040976572682        44.8542338668759     
   1768.51636615470     
 -0.740000000000000       1.141732866483593E-003  3.783964149792354E-003
  0.399290318125839        5.97193462313116        39.8755151678730     
   1725.21161914297     
 -0.737142857142857       1.150936714201713E-003  2.666524914243718E-003
  0.382919931544513        6.04017396598210        35.0318870572648     
   1680.90983322213     
 -0.734285714285714       1.157014663464637E-003  1.595820233696631E-003
  0.366581011652089        6.09549482492650        30.3144650908335     
   1635.72130322751     
 -0.731428571428571       1.160100073849630E-003  5.717191489482146E-004
  0.350302021236655        6.13827036169252        25.7257032035612     
   1589.75217747482     
 -0.728571428571429       1.160325816819316E-003  4.059882871257467E-004
  0.334109797830682        6.16887904949535        21.2677555981013     
   1543.10455114055     
 -0.725714285714286       1.157824056604340E-003  1.337586440675160E-003
  0.318029605811004        6.18770388530095        17.3331620704256     
   1495.87655830650     
 -0.722857142857143       1.152726043928855E-003  2.223429675264102E-003
  0.302085187400261        6.19513163321873        16.1578043680703     
   1448.16246267932     
 -0.720000000000000       1.145161922162512E-003  3.063938074426753E-003
  0.286298812585083        6.19155209830400        17.2493532586667     
   1400.05274699683     
 -0.717142857142857       1.135260545491413E-003  3.859593305317096E-003
  0.270691327966187        6.17735743006228        18.8373255814010     
   1351.63420113203     
 -0.714285714285714       1.123149308709270E-003  4.610934620422483E-003
  0.255282204555424        6.15294145495710        21.3437346968524     
   1302.99000890635     
 -0.711428571428571       1.108953988238551E-003  5.318554994353616E-003
  0.240089584534661        6.11869903723392        23.7300204139164     
   1254.19983362299     
 -0.708571428571429       1.092798593999939E-003  5.983097392765658E-003
  0.225130326991298        6.07502546738245        25.9966241427046     
   1205.33990233186     
 -0.705714285714286       1.074805231756687E-003  6.605251170508071E-003
  0.210420052645048        6.02231587757008        28.1441461839404     
   1156.48308883692     
 -0.702857142857143       1.055093975568803E-003  7.185748596141158E-003
  0.195973187580522        5.96096468338902        30.1733379917671     
   1107.69899545711     
 -0.700000000000000       1.033782750000000E-003  7.725361500000015E-003
  0.181803006000000        5.89136505126953        32.0850946335566     
   1059.05403355190     
 -0.697142857142857       1.010987221728444E-003  8.224898043026358E-003
  0.167921672010670        5.81390839092187        33.8804474436613     
   1010.61150282234     
 -0.694285714285714       9.868207002201338E-004  8.685199603630027E-003
  0.154340280460476        5.72898387217876        35.5605568680835     
   962.431669398645     
 -0.691428571428572       9.613940471315744E-004  9.107137779881968E-003
  0.141068896836594        5.63697796562035        37.1267054970621     
   914.571842725004     
 -0.688571428571429       9.348155941160232E-004  9.491611504380267E-003
  0.128116596240445        5.53827400637295        38.5802912826052     
   867.086451252722     
 -0.685714285714286       9.071910687151342E-004  9.839544269170464E-003
  0.115491501453000        5.43325178048230        39.9228209380214     
   820.027116952230     
 -0.682857142857143       8.786235280252569E-004  1.015188145814078E-002
  0.103200820104052        5.32228713327160        41.1559035165357     
   773.442728654841     
 -0.680000000000000       8.492132998349586E-004  1.042958778435110E-002
  9.125088095895523E-002   5.20575159910400        42.2812441660953     
   727.379514234920     
 -0.677142857142857       8.190579309375394E-004  1.067364482979375E-002
  7.964716933626276E-002   5.08401205197800        43.4771728484513     
   681.917588962663     
 -0.674285714285714       7.882521423294088E-004  1.088504868512167E-002
  6.839436166953181E-002   4.95743037639392        45.1091975418920     
   637.208477566518     
 -0.671428571428571       7.568877910121862E-004  1.106480768691771E-002
  5.749635922646848E-002   4.82636315793832        46.6173790013049     
   593.131878532070     
 -0.668571428571429       7.250538381232360E-004  1.121394025011607E-002
  4.695632099844693E-002   4.69116139304225        48.0037220334534     
   549.724540440004     
 -0.665714285714286       6.928363231261728E-004  1.133347279322400E-002
  3.677669577333579E-002   4.55217021737819        49.2703233060607     
   507.020882469728     
 -0.662857142857143       6.603183437994809E-004  1.142443775402879E-002
  2.695925340442590E-002   4.40972865236937        50.4193650995937     
   465.053060076708     
 -0.660000000000000       6.275800417680004E-004  1.148787169351106E-002
  1.750511528815072E-002   4.26416936929365        51.4531092387084     
   423.851029580951     
 -0.657142857142857       5.946985933284696E-004  1.152481348572214E-002
  8.414784063161592E-003   4.11581847047319        52.3738912003461     
   383.442611676985     
 -0.654285714285714       5.617482053266664E-004  1.153630259141829E-002
  3.118274567938204E-004   3.96499528704918        53.1841143955013     
   343.853553875661     
 -0.651428571428571       5.288001158499659E-004  1.152337741328041E-002
  8.675368103857219E-003   3.81201219284988        53.8862446217087     
   305.107591888077     
 -0.648571428571429       4.959225995052678E-004  1.148707373058297E-002
  1.667702091869749E-002   3.65717443386831        54.4828046833263     
   267.284575870967     
 -0.645714285714286       4.631809770582988E-004  1.142842321121013E-002
  2.431847644270618E-002   3.50077997287426        54.9763691767200     
   233.918653282092     
 -0.642857142857143       4.306376292162734E-004  1.134845199895201E-002
  3.160190672776482E-002   3.34311934869359        55.3695594374841     
   211.987982148110     
 -0.640000000000000       3.983520143417285E-004  1.124817937404790E-002
  3.852994005172228E-002   3.18447554969600        55.6650386468572     
   203.562794844445     
 -0.637142857142857       3.663806898911211E-004  1.112861648497655E-002
  4.510563632783070E-002   3.02512390104038        55.8655070945269     
   198.413030239822     
 -0.634285714285714       3.347773373774581E-004  1.099076514952805E-002
  5.133246319650166E-002   2.86533196523488        55.9736975950382     
   204.233695326016     
 -0.631428571428571       3.035927906617458E-004  1.083561672322364E-002
  5.721427278786561E-002   2.70535945557683        55.9923710550532     
   214.555931343504     
 -0.628571428571429       2.728750673836005E-004  1.066415103318377E-002
  6.275527914371898E-002   2.54545816204540        55.9243121887351     
   224.275977245837     
 -0.625714285714286       2.426694033466674E-004  1.047733537557617E-002
  6.796003628756998E-002   2.38587188922758        55.7723253785578     
   233.397406925476     
 -0.622857142857143       2.130182896798391E-004  1.027612357480854E-002
  7.283341693159558E-002   2.22683640586585        55.5392306788697     
   241.924419101405     
 -0.620000000000000       1.839615126004392E-004  1.006145510266175E-002
  7.738059180943876E-002   2.06857940562353        55.2278599595670     
   249.861810198611     
 -0.617142857142857       1.555361956106498E-004  9.834254255591191E-003
  8.160700962388827E-002   1.91132047867109        54.8410531872617     
   257.214947784310     
 -0.614285714285714       1.277768439634900E-004  9.595429388455057E-003
  8.551837759858906E-002   1.75527109370438        54.3816548413522     
   268.590523591370     
 -0.611428571428571       1.007153912395729E-004  9.345872202959016E-003
  8.912064262304611E-002   1.60063459001303        53.8525104624357     
   286.138202351062     
 -0.608571428571429       7.438124788070895E-005  9.086457089137414E-003
  9.241997298029406E-002   1.44760617922443        53.2564633305254     
   302.800057254117     
 -0.605714285714286       4.880135153119764E-005  8.818040518221274E-003
  9.542274064671032E-002   1.29637295635613        52.5963512705646     
   318.581177880249     
 -0.602857142857143       2.400021904230354E-005  8.541460485273369E-003
  9.813550415356456E-002   1.14711391981641        51.8750035827543     
   333.487504943117     
 -0.600000000000000       0.000000000000000E+000  8.257536000000001E-003
  0.100564992000000        1.00000000000000        51.0952380952381     
   347.525793650794     
 -0.597142857142857       2.317946835941580E-005  7.967066624178797E-003
  0.102718086607253        1.10975378318519        50.2598583367168     
   360.703577816685     
 -0.594285714285714       4.552060497685358E-005  7.670832054170225E-003
  0.104601808804027        1.21656362713836        49.3716508265863     
   373.029134712634     
 -0.591428571428571       6.700802766773553E-005  7.369591747009912E-003
  0.106223302833030        1.32032890895422        48.4333824802246     
   384.511450656000     
 -0.588571428571429       8.762849481150275E-005  7.064084588606517E-003
  0.107589821868826        1.42095588886772        47.4477981270744     
   395.160187322531     
 -0.585714285714286       1.073708461515364E-004  6.755028602598451E-003
  0.108708714037196        1.51835763140560        46.4176181391974     
   404.985648776901     
 -0.582857142857143       1.262259428196324E-004  6.443120698450325E-003
  0.109587408926386        1.61245392129355        45.3455361679995     
   413.998749212802     
 -0.580000000000000       1.441866066951513E-004  6.129036457397368E-003
  0.110233404580654        1.70317117438225        44.2342169868542     
   422.210981394543     
 -0.577142857142857       1.612475592050179E-004  5.813429954873437E-003
  0.110654254966678        1.79044234384980        43.0862944373746     
   429.634385792143     
 -0.574285714285714       1.774053596668969E-004  5.496933618084935E-003
  0.110857557903469        1.87420682193279        41.9043694771115     
   436.281520401909     
 -0.571428571428571       1.926583432740838E-004  5.180158117419482E-003
  0.110850943446553        1.95441033743203        40.6910083264794     
   442.165431244611     
 -0.568571428571429       2.070065588169358E-004  4.863692290404673E-003
  0.110642062717260        2.03100484923410        39.4487407127379     
   447.299623533299     
 -0.565714285714286       2.204517062320399E-004  4.548103096957995E-003
  0.110238577168100        2.10394843608386        38.1800582088806     
   451.698033502946     
 -0.562857142857143       2.329970740667572E-004  4.233935604694767E-003
  0.109648148275272        2.17320518283795        36.8874126653086     
   456.337003189151     
 -0.560000000000000       2.446474769432836E-004  3.921713003086486E-003
  0.108878427649475        2.23874506342400        35.5732147321905     
   463.463405511111     
 -0.557142857142857       2.554091931029737E-004  3.611936645286704E-003
  0.107937047556282        2.30054382072480        34.2398324704358     
   469.768594078317     
 -0.554285714285714       2.652899021083049E-004  3.305086116466889E-003
  0.106831611837440        2.35858284360155        32.8895900492321     
   475.268149002884     
 -0.551428571428571       2.742986227766100E-004  3.001619327528753E-003
  0.105569687224559        2.41284904126533        31.5247665281216     
   479.978062109760     
 -0.548571428571429       2.824456514164870E-004  2.701972633084169E-003
  0.104158795036754        2.46333471520052        30.1475947216169     
   483.914708395276     
 -0.545714285714286       2.897425004346684E-004  2.406560972617475E-003
  0.102606403253893        2.51003742883921        28.7602601443801     
   487.094818173164     
 -0.542857142857143       2.962018373780603E-004  2.115778033769020E-003
  0.100919918957231        2.55295987518032        27.3649000350116     
   489.535449899669     
 -0.540000000000000       3.018374244726736E-004  1.829996436701586E-003
  9.910668112925185E-002   2.59210974254275        25.9636024565223     
   491.253963669407     
 -0.537142857142857       3.066640587182193E-004  1.549567938535301E-003
  9.717395380471362E-002   2.62749957863636        24.5584054715831     
   492.267995373674     
 -0.534285714285714       3.106975125942927E-004  1.274823656858617E-003
  9.512891956491254E-002   2.65914665313053        23.1512963906709     
   492.595431512968     
 -0.531428571428571       3.139544754312526E-004  1.006074311346228E-003
  9.297867336733542E-002   2.68707281889480        21.7768579895952     
   492.254384655503     
 -0.528571428571429       3.164524954961767E-004  7.436104825366489E-004
  9.073021670293349E-002   2.71130437208154        20.4227668058241     
   491.263169533563     
 -0.525714285714286       3.182099228415897E-004  4.877028868443654E-004
  8.839045207335794E-002   2.73187191121635        19.0716257354816     
   489.640279769565     
 -0.522857142857143       3.192458529620540E-004  2.386026669033447E-004
  8.596617778059075E-002   2.74881019545679        17.7239002544999     
   487.404365223764     
 -0.520000000000000       3.195800713011657E-004  3.458303640205230E-006
  8.346408302149635E-002   2.76215800217600        16.3805588398730     
   484.574209955556     
 -0.517142857142857       3.192329986489996E-004  2.382671017461595E-004
  8.089074327991670E-002   2.77195798402317        15.0434412280196     
   481.168710790403     
 -0.514285714285714       3.182256374676260E-004  4.656294238498500E-004
  7.825261600902120E-002   2.77825652560852        13.8780153138892     
   477.206856484422     
 -0.511428571428571       3.165795191799535E-004  6.853692428013160E-004
  7.555603659672053E-002   2.78110359995604        13.2986035357954     
   472.707707478739     
 -0.508571428571429       3.143166524548315E-004  8.973284536731189E-004
  7.280721460704086E-002   2.78055262486313        13.1092258327111     
   467.690376235749     
 -0.505714285714286       3.114594725191068E-004  1.101366509215017E-003
  7.001223029045146E-002   2.77666031930201        13.2116187477209     
   462.174008149466     
 -0.502857142857143       3.080307915251201E-004  1.297360045714238E-003
  6.717703135622413E-002   2.76948655999371        13.7362630253744     