 VARIABLES = "X", "Ux", "Error Ux" 
 ZONE I=          21 ,DATAPACKING=POINT
  -1.00000000000000       -3.14162846924041      -3.581565061860914E-005
 -0.968133451622095       -3.12584484169401       1.787711733536312E-005
 -0.881334751433768       -2.92582065611380      -1.789572961463648E-005
 -0.764271786586648       -2.31875781406944       1.866288516971792E-005
 -0.653642386938342       -1.45817332793753       1.653676088864131E-005
 -0.545511771864039      -0.447649016325923       5.280014605812955E-006
 -0.436369536137632       0.623826224494866      -7.057811128086122E-006
 -0.327180849161556        1.62306861481597      -1.832723246009138E-005
 -0.218154949867251        2.43217795133398      -2.749883557839894E-005
 -0.109079894803258        2.95889441399007      -3.344868118748678E-005
  6.199650627245017E-018   3.14155714793603      -3.550565376553294E-005
  0.109079894803258        2.95889441399007      -3.344868118837496E-005
  0.218154949867251        2.43217795133398      -2.749883557751076E-005
  0.327180849161556        1.62306861481596      -1.832723246275592E-005
  0.436369536137632       0.623826224494868      -7.057811125754654E-006
  0.545511771864039      -0.447649016325923       5.280014606035000E-006
  0.653642386938342       -1.45817332793753       1.653676088819722E-005
  0.764271786586648       -2.31875781406944       1.866288517060610E-005
  0.881334751433768       -2.92582065611380      -1.789572961419239E-005
  0.968133451622095       -3.12584484169401       1.787711733491903E-005
   1.00000000000000       -3.14162846924041      -3.581565062038550E-005
