 VARIABLES = "X", "Y", "Uxx", "Error Uxx" 
 ZONE I=          21 , J=          21 ,DATAPACKING=POINT
  -1.00000000000000       -1.00000000000000      -4.491745063619937E-019
 -4.491745063618457E-019
  -1.00000000000000      -0.968133451622095      -3.665755213129174E-004
 -3.665755213127966E-004
  -1.00000000000000      -0.881334751433768      -1.335891154808699E-003
 -1.335891154808259E-003
  -1.00000000000000      -0.764271786586648      -2.474667113169460E-003
 -2.474667113168644E-003
  -1.00000000000000      -0.653642386938342      -3.248755630018252E-003
 -3.248755630017181E-003
  -1.00000000000000      -0.545511771864039      -3.630361490950307E-003
 -3.630361490949110E-003
  -1.00000000000000      -0.436369536137632      -3.594748740107789E-003
 -3.594748740106605E-003
  -1.00000000000000      -0.327180849161556      -3.140360025257749E-003
 -3.140360025256714E-003
  -1.00000000000000      -0.218154949867251      -2.321515921700268E-003
 -2.321515921699503E-003
  -1.00000000000000      -0.109079894803258      -1.232438460621488E-003
 -1.232438460621082E-003
  -1.00000000000000       6.199650627245017E-018  7.143669211591786E-020
  7.143669211589432E-020
  -1.00000000000000       0.109079894803258       1.232438460585961E-003
  1.232438460585554E-003
  -1.00000000000000       0.218154949867251       2.321515921700268E-003
  2.321515921699503E-003
  -1.00000000000000       0.327180849161556       3.140360025257749E-003
  3.140360025256714E-003
  -1.00000000000000       0.436369536137632       3.594748740107789E-003
  3.594748740106605E-003
  -1.00000000000000       0.545511771864039       3.630361490950307E-003
  3.630361490949110E-003
  -1.00000000000000       0.653642386938342       3.248755630018252E-003
  3.248755630017181E-003
  -1.00000000000000       0.764271786586648       2.474667113169460E-003
  2.474667113168644E-003
  -1.00000000000000       0.881334751433768       1.335891154808699E-003
  1.335891154808259E-003
  -1.00000000000000       0.968133451622095       3.665755213129174E-004
  3.665755213127966E-004
  -1.00000000000000        1.00000000000000       4.491745063619937E-019
  4.491745063618457E-019
 -0.968133451622095       -1.00000000000000      -1.208324304768497E-016
 -3.163045355084418E-020
 -0.968133451622095      -0.968133451622095      -9.861247814408514E-002
 -2.581390937361761E-005
 -0.968133451622095      -0.881334751433768      -0.359368069198126     
 -9.407222031182494E-005
 -0.968133451622095      -0.764271786586648      -0.665710180935108     
 -1.742637706888539E-004
 -0.968133451622095      -0.653642386938342      -0.873947726833409     
 -2.287743685157606E-004
 -0.968133451622095      -0.545511771864039      -0.976603516491467     
 -2.556467005153662E-004
 -0.968133451622095      -0.436369536137632      -0.967023330713393     
 -2.531388835319559E-004
 -0.968133451622095      -0.327180849161556      -0.844788226018846     
 -2.211412502255428E-004
 -0.968133451622095      -0.218154949867251      -0.624510980076109     
 -1.634790053514079E-004
 -0.968133451622095      -0.109079894803258      -0.331538260728250     
 -8.678717720700391E-005
 -0.968133451622095       6.199650627245017E-018  1.921718399245587E-017
  5.030505827282487E-021
 -0.968133451622095       0.109079894803258       0.331538260728247     
  8.678717720417284E-005
 -0.968133451622095       0.218154949867251       0.624510980076109     
  1.634790053514079E-004
 -0.968133451622095       0.327180849161556       0.844788226018846     
  2.211412502255428E-004
 -0.968133451622095       0.436369536137632       0.967023330713393     
  2.531388835319559E-004
 -0.968133451622095       0.545511771864039       0.976603516491467     
  2.556467005153662E-004
 -0.968133451622095       0.653642386938342       0.873947726833409     
  2.287743685157606E-004
 -0.968133451622095       0.764271786586648       0.665710180935108     
  1.742637706888539E-004
 -0.968133451622095       0.881334751433768       0.359368069198126     
  9.407222031182494E-005
 -0.968133451622095       0.968133451622095       9.861247814408514E-002
  2.581390937361761E-005
 -0.968133451622095        1.00000000000000       1.208324304768497E-016
  3.163045355084418E-020
 -0.881334751433768       -1.00000000000000      -4.402214061981464E-016
  6.352793289895974E-021
 -0.881334751433768      -0.968133451622095      -0.359268812403714     
  5.184574100869366E-006
 -0.881334751433768      -0.881334751433768       -1.30926371455734     
  1.889386027564832E-005
 -0.881334751433768      -0.764271786586648       -2.42534120033134     
  3.499986844168745E-005
 -0.881334751433768      -0.653642386938342       -3.18400031954992     
  4.594800609991623E-005
 -0.881334751433768      -0.545511771864039       -3.55799988158221     
  5.134515829530173E-005
 -0.881334751433768      -0.436369536137632       -3.52309697647457     
  5.084147775047398E-005
 -0.881334751433768      -0.327180849161556       -3.07776529305932     
  4.441493856077727E-005
 -0.881334751433768      -0.218154949867251       -2.27524267078245     
  3.283381083152292E-005
 -0.881334751433768      -0.109079894803258       -1.20787307488813     
  1.743070159143656E-005
 -0.881334751433768       6.199650627245017E-018  7.001279149100825E-017
 -1.010347942894839E-021
 -0.881334751433768       0.109079894803258        1.20787307488813     
 -1.743070159365701E-005
 -0.881334751433768       0.218154949867251        2.27524267078245     
 -3.283381083152292E-005
 -0.881334751433768       0.327180849161556        3.07776529305932     
 -4.441493856077727E-005
 -0.881334751433768       0.436369536137632        3.52309697647457     
 -5.084147775047398E-005
 -0.881334751433768       0.545511771864039        3.55799988158221     
 -5.134515829530173E-005
 -0.881334751433768       0.653642386938342        3.18400031954992     
 -4.594800609991623E-005
 -0.881334751433768       0.764271786586648        2.42534120033134     
 -3.499986844168745E-005
 -0.881334751433768       0.881334751433768        1.30926371455734     
 -1.889386027564832E-005
 -0.881334751433768       0.968133451622095       0.359268812403714     
 -5.184574100869366E-006
 -0.881334751433768        1.00000000000000       4.402214061981464E-016
 -6.352793289895974E-021
 -0.764271786586648       -1.00000000000000      -8.155013764412817E-016
 -2.932896271027385E-021
 -0.764271786586648      -0.968133451622095      -0.665538310728536     
 -2.393564116354163E-006
 -0.764271786586648      -0.881334751433768       -2.42538492293478     
 -8.722734993860115E-006
 -0.764271786586648      -0.764271786586648       -4.49289620941267     
 -1.615840136270918E-005
 -0.764271786586648      -0.653642386938342       -5.89829709919580     
 -2.121283184930434E-005
 -0.764271786586648      -0.545511771864039       -6.59112382986265     
 -2.370453696709518E-005
 -0.764271786586648      -0.436369536137632       -6.52646689415629     
 -2.347200258956406E-005
 -0.764271786586648      -0.327180849161556       -5.70149883107542     
 -2.050506003925534E-005
 -0.764271786586648      -0.218154949867251       -4.21484167656735     
 -1.515839678489783E-005
 -0.764271786586648      -0.109079894803258       -2.23756078479807     
 -8.047238022612646E-006
 -0.764271786586648       6.199650627245017E-018  1.296973000983847E-016
  4.664476831340930E-022
 -0.764271786586648       0.109079894803258        2.23756078479807     
  8.047238023056735E-006
 -0.764271786586648       0.218154949867251        4.21484167656735     
  1.515839678489783E-005
 -0.764271786586648       0.327180849161556        5.70149883107542     
  2.050506003925534E-005
 -0.764271786586648       0.436369536137632        6.52646689415629     
  2.347200258956406E-005
 -0.764271786586648       0.545511771864039        6.59112382986265     
  2.370453696709518E-005
 -0.764271786586648       0.653642386938342        5.89829709919580     
  2.121283184930434E-005
 -0.764271786586648       0.764271786586648        4.49289620941267     
  1.615840136270918E-005
 -0.764271786586648       0.881334751433768        2.42538492293478     
  8.722734993860115E-006
 -0.764271786586648       0.968133451622095       0.665538310728536     
  2.393564116354163E-006
 -0.764271786586648        1.00000000000000       8.155013764412817E-016
  2.932896271027385E-021
 -0.653642386938342       -1.00000000000000      -1.070586250305398E-015
  4.272992943816520E-021
 -0.653642386938342      -0.968133451622095      -0.873715465235336     
  3.487229557452842E-006
 -0.653642386938342      -0.881334751433768       -3.18403355923579     
  1.270832022903789E-005
 -0.653642386938342      -0.764271786586648       -5.89825234487851     
  2.354148544014834E-005
 -0.653642386938342      -0.653642386938342       -7.74325581419782     
  3.090538234928886E-005
 -0.653642386938342      -0.545511771864039       -8.65279538472892     
  3.453559541810591E-005
 -0.653642386938342      -0.436369536137632       -8.56791407323910     
  3.419681164018584E-005
 -0.653642386938342      -0.327180849161556       -7.48490000264411     
  2.987421599254247E-005
 -0.653642386938342      -0.218154949867251       -5.53322370323684     
  2.208455956509425E-005
 -0.653642386938342      -0.109079894803258       -2.93745894198359     
  1.172417572092854E-005
 -0.653642386938342       6.199650627245017E-018  1.702659862978937E-016
 -6.795765934792289E-022
 -0.653642386938342       0.109079894803258        2.93745894198360     
 -1.172417571337903E-005
 -0.653642386938342       0.218154949867251        5.53322370323684     
 -2.208455956509425E-005
 -0.653642386938342       0.327180849161556        7.48490000264411     
 -2.987421599254247E-005
 -0.653642386938342       0.436369536137632        8.56791407323910     
 -3.419681164018584E-005
 -0.653642386938342       0.545511771864039        8.65279538472892     
 -3.453559541810591E-005
 -0.653642386938342       0.653642386938342        7.74325581419782     
 -3.090538234928886E-005
 -0.653642386938342       0.764271786586648        5.89825234487851     
 -2.354148544014834E-005
 -0.653642386938342       0.881334751433768        3.18403355923579     
 -1.270832022903789E-005
 -0.653642386938342       0.968133451622095       0.873715465235336     
 -3.487229557452842E-006
 -0.653642386938342        1.00000000000000       1.070586250305398E-015
 -4.272992943816520E-021
 -0.545511771864039       -1.00000000000000      -1.196340931874297E-015
  3.469139158265093E-021
 -0.545511771864039      -0.968133451622095      -0.976345038593993     
  2.831196958874571E-006
 -0.545511771864039      -0.881334751433768       -3.55804090916403     
  1.031757648206622E-005
 -0.545511771864039      -0.764271786586648       -6.59108101256554     
  1.911276014965324E-005
 -0.545511771864039      -0.653642386938342       -8.65280482899515     
  2.509132918504520E-005
 -0.545511771864039      -0.545511771864039       -9.66918199344631     
  2.803861091393856E-005
 -0.545511771864039      -0.436369536137632       -9.57433023604938     
  2.776356061495733E-005
 -0.545511771864039      -0.327180849161556       -8.36410167008475     
  2.425415019935429E-005
 -0.545511771864039      -0.218154949867251       -6.18317487218887     
  1.792991742188832E-005
 -0.545511771864039      -0.109079894803258       -3.28250280348046     
  9.518573455213897E-006
 -0.545511771864039       6.199650627245017E-018  1.902660048697712E-016
 -5.517317269830335E-022
 -0.545511771864039       0.109079894803258        3.28250280348046     
 -9.518573455657986E-006
 -0.545511771864039       0.218154949867251        6.18317487218887     
 -1.792991742188832E-005
 -0.545511771864039       0.327180849161556        8.36410167008475     
 -2.425415019935429E-005
 -0.545511771864039       0.436369536137632        9.57433023604938     
 -2.776356061495733E-005
 -0.545511771864039       0.545511771864039        9.66918199344631     
 -2.803861091393856E-005
 -0.545511771864039       0.653642386938342        8.65280482899515     
 -2.509132918504520E-005
 -0.545511771864039       0.764271786586648        6.59108101256554     
 -1.911276014965324E-005
 -0.545511771864039       0.881334751433768        3.55804090916403     
 -1.031757648206622E-005
 -0.545511771864039       0.968133451622095       0.976345038593993     
 -2.831196958874571E-006
 -0.545511771864039        1.00000000000000       1.196340931874297E-015
 -3.469139158265093E-021
 -0.436369536137632       -1.00000000000000      -1.184605228905615E-015
  3.394565851170078E-021
 -0.436369536137632      -0.968133451622095      -0.966767421492881     
  2.770336979929233E-006
 -0.436369536137632      -0.881334751433768       -3.52313772216455     
  1.009578777066977E-005
 -0.436369536137632      -0.764271786586648       -6.52642472024532     
  1.870190837749419E-005
 -0.436369536137632      -0.653642386938342       -8.56792371808986     
  2.455196087858269E-005
 -0.436369536137632      -0.545511771864039       -9.57433056372266     
  2.743588732556645E-005
 -0.436369536137632      -0.436369536137632       -9.48040927022716     
  2.716674952374376E-005
 -0.436369536137632      -0.327180849161556       -8.28205264025997     
  2.373277813738639E-005
 -0.436369536137632      -0.218154949867251       -6.12252000218482     
  1.754449229185440E-005
 -0.436369536137632      -0.109079894803258       -3.25030255280849     
  9.313960285251000E-006
 -0.436369536137632       6.199650627245017E-018  1.883995592281513E-016
 -5.398715906776958E-022
 -0.436369536137632       0.109079894803258        3.25030255280849     
 -9.313960285251000E-006
 -0.436369536137632       0.218154949867251        6.12252000218482     
 -1.754449229185440E-005
 -0.436369536137632       0.327180849161556        8.28205264025997     
 -2.373277813738639E-005
 -0.436369536137632       0.436369536137632        9.48040927022716     
 -2.716674952374376E-005
 -0.436369536137632       0.545511771864039        9.57433056372266     
 -2.743588732556645E-005
 -0.436369536137632       0.653642386938342        8.56792371808986     
 -2.455196087858269E-005
 -0.436369536137632       0.764271786586648        6.52642472024532     
 -1.870190837749419E-005
 -0.436369536137632       0.881334751433768        3.52313772216455     
 -1.009578777066977E-005
 -0.436369536137632       0.968133451622095       0.966767421492881     
 -2.770336979929233E-006
 -0.436369536137632        1.00000000000000       1.184605228905615E-015
 -3.394565851170078E-021
 -0.327180849161556       -1.00000000000000      -1.034867101659267E-015
  2.881064752852605E-021
 -0.327180849161556      -0.968133451622095      -0.844564733504696     
  2.351263924893487E-006
 -0.327180849161556      -0.881334751433768       -3.07780113941515     
  8.568582738011088E-006
 -0.327180849161556      -0.764271786586648       -5.70146245317287     
  1.587284251414189E-005
 -0.327180849161556      -0.653642386938342       -7.48490903891136     
  2.083794874963019E-005
 -0.327180849161556      -0.545511771864039       -8.36410263861568     
  2.328561926567829E-005
 -0.327180849161556      -0.436369536137632       -8.28205331584374     
  2.305719437067921E-005
 -0.327180849161556      -0.327180849161556       -7.23517303695624     
  2.014268500172278E-005
 -0.327180849161556      -0.218154949867251       -5.34861266429266     
  1.489051047798284E-005
 -0.327180849161556      -0.109079894803258       -2.83945326279549     
  7.905023452714488E-006
 -0.327180849161556       6.199650627245017E-018  1.645852145971356E-016
 -4.582044011095599E-022
 -0.327180849161556       0.109079894803258        2.83945326279549     
 -7.905023449605864E-006
 -0.327180849161556       0.218154949867251        5.34861266429266     
 -1.489051047798284E-005
 -0.327180849161556       0.327180849161556        7.23517303695624     
 -2.014268500172278E-005
 -0.327180849161556       0.436369536137632        8.28205331584374     
 -2.305719437067921E-005
 -0.327180849161556       0.545511771864039        8.36410263861568     
 -2.328561926567829E-005
 -0.327180849161556       0.653642386938342        7.48490903891136     
 -2.083794874963019E-005
 -0.327180849161556       0.764271786586648        5.70146245317287     
 -1.587284251414189E-005
 -0.327180849161556       0.881334751433768        3.07780113941515     
 -8.568582738011088E-006
 -0.327180849161556       0.968133451622095       0.844564733504696     
 -2.351263924893487E-006
 -0.327180849161556        1.00000000000000       1.034867101659267E-015
 -2.881064752852605E-021
 -0.218154949867251       -1.00000000000000      -7.650270233790207E-016
  2.184246199229891E-021
 -0.218154949867251      -0.968133451622095      -0.624345718486975     
  1.782583782361513E-006
 -0.218154949867251      -0.881334751433768       -2.27526900842054     
  6.496172735737105E-006
 -0.218154949867251      -0.764271786586648       -4.21481448435708     
  1.203381348613419E-005
 -0.218154949867251      -0.653642386938342       -5.53322998974457     
  1.579805183293814E-005
 -0.218154949867251      -0.545511771864039       -6.18317514838114     
  1.765372515016850E-005
 -0.218154949867251      -0.436369536137632       -6.12252006612967     
  1.748054743888616E-005
 -0.218154949867251      -0.327180849161556       -5.34861228385754     
  1.527094559783393E-005
 -0.218154949867251      -0.218154949867251       -3.95396976018510     
  1.128906974878774E-005
 -0.218154949867251      -0.109079894803258       -2.09906999089773     
  5.993102868195876E-006
 -0.218154949867251       6.199650627245017E-018  1.216698613895068E-016
 -3.473824118625173E-022
 -0.218154949867251       0.109079894803258        2.09906999089773     
 -5.993102869972233E-006
 -0.218154949867251       0.218154949867251        3.95396976018510     
 -1.128906974878774E-005
 -0.218154949867251       0.327180849161556        5.34861228385754     
 -1.527094559783393E-005
 -0.218154949867251       0.436369536137632        6.12252006612967     
 -1.748054743888616E-005
 -0.218154949867251       0.545511771864039        6.18317514838114     
 -1.765372515016850E-005
 -0.218154949867251       0.653642386938342        5.53322998974457     
 -1.579805183293814E-005
 -0.218154949867251       0.764271786586648        4.21481448435708     
 -1.203381348613419E-005
 -0.218154949867251       0.881334751433768        2.27526900842054     
 -6.496172735737105E-006
 -0.218154949867251       0.968133451622095       0.624345718486975     
 -1.782583782361513E-006
 -0.218154949867251        1.00000000000000       7.650270233790207E-016
 -2.184246199229891E-021
 -0.109079894803258       -1.00000000000000      -4.061349361776171E-016
  1.162296538166534E-021
 -0.109079894803258      -0.968133451622095      -0.331450524989953     
  9.485610902859598E-007
 -0.109079894803258      -0.881334751433768       -1.20788704880033     
  3.456789384292946E-006
 -0.109079894803258      -0.764271786586648       -2.23754633404209     
  6.403517958997185E-006
 -0.109079894803258      -0.653642386938342       -2.93746225958822     
  8.406571098351634E-006
 -0.109079894803258      -0.545511771864039       -3.28250292802879     
  9.394025124453975E-006
 -0.109079894803258      -0.436369536137632       -3.25030256489622     
  9.301872561096047E-006
 -0.109079894803258      -0.327180849161556       -2.83945304173534     
  8.126083604231837E-006
 -0.109079894803258      -0.218154949867251       -2.09906997678096     
  6.007219646608775E-006
 -0.109079894803258      -0.109079894803258       -1.11434711550476     
  3.189092292466000E-006
 -0.109079894803258       6.199650627245017E-018  6.459168092116582E-017
 -1.848515861411744E-022
 -0.109079894803258       0.109079894803258        1.11434711550476     
 -3.189092292910090E-006
 -0.109079894803258       0.218154949867251        2.09906997678096     
 -6.007219646608775E-006
 -0.109079894803258       0.327180849161556        2.83945304173534     
 -8.126083604231837E-006
 -0.109079894803258       0.436369536137632        3.25030256489622     
 -9.301872561096047E-006
 -0.109079894803258       0.545511771864039        3.28250292802879     
 -9.394025124453975E-006
 -0.109079894803258       0.653642386938342        2.93746225958822     
 -8.406571098351634E-006
 -0.109079894803258       0.764271786586648        2.23754633404209     
 -6.403517958997185E-006
 -0.109079894803258       0.881334751433768        1.20788704880033     
 -3.456789384292946E-006
 -0.109079894803258       0.968133451622095       0.331450524989953     
 -9.485610902859598E-007
 -0.109079894803258        1.00000000000000       4.061349361776171E-016
 -1.162296538166534E-021
  6.199650627245017E-018  -1.00000000000000       1.232595164407831E-030
  1.209054013793081E-030
  6.199650627245017E-018 -0.968133451622095       9.436895709313831E-016
  9.244774174447546E-016
  6.199650627245017E-018 -0.881334751433768       5.884182030513330E-015
  5.814168228674378E-015
  6.199650627245017E-018 -0.764271786586648       9.880984919163893E-015
  9.751288085513192E-015
  6.199650627245017E-018 -0.653642386938342       7.882583474838611E-015
  7.712316808964125E-015
  6.199650627245017E-018 -0.545511771864039       1.032507412901396E-014
  1.013480757241246E-014
  6.199650627245017E-018 -0.436369536137632       7.993605777301127E-015
  7.805205678201385E-015
  6.199650627245017E-018 -0.327180849161556       6.106226635438361E-015
  5.941640962636824E-015
  6.199650627245017E-018 -0.218154949867251       7.993605777301127E-015
  7.871935568529209E-015
  6.199650627245017E-018 -0.109079894803258       4.496403249731884E-015
  4.431811383959132E-015
  6.199650627245017E-018  6.199650627245017E-018 -1.386669559958810E-031
 -1.349229725224670E-031
  6.199650627245017E-018  0.109079894803258      -2.664535259100376E-015
 -2.599943393327624E-015
  6.199650627245017E-018  0.218154949867251      -7.993605777301127E-015
 -7.871935568529209E-015
  6.199650627245017E-018  0.327180849161556      -6.106226635438361E-015
 -5.941640962636824E-015
  6.199650627245017E-018  0.436369536137632      -7.993605777301127E-015
 -7.805205678201385E-015
  6.199650627245017E-018  0.545511771864039      -1.032507412901396E-014
 -1.013480757241246E-014
  6.199650627245017E-018  0.653642386938342      -7.882583474838611E-015
 -7.712316808964125E-015
  6.199650627245017E-018  0.764271786586648      -9.880984919163893E-015
 -9.751288085513192E-015
  6.199650627245017E-018  0.881334751433768      -5.884182030513330E-015
 -5.814168228674378E-015
  6.199650627245017E-018  0.968133451622095      -9.436895709313831E-016
 -9.244774174447546E-016
  6.199650627245017E-018   1.00000000000000      -1.232595164407831E-030
 -1.209054013793081E-030
  0.109079894803258       -1.00000000000000       4.061349361776194E-016
 -1.162296535898559E-021
  0.109079894803258      -0.968133451622095       0.331450524989955     
 -9.485610882320472E-007
  0.109079894803258      -0.881334751433768        1.20788704880034     
 -3.456789376743430E-006
  0.109079894803258      -0.764271786586648        2.23754633404209     
 -6.403517956776739E-006
  0.109079894803258      -0.653642386938342        2.93746225958824     
 -8.406571075703084E-006
  0.109079894803258      -0.545511771864039        3.28250292802882     
 -9.394025096920444E-006
  0.109079894803258      -0.436369536137632        3.25030256489623     
 -9.301872546441103E-006
  0.109079894803258      -0.327180849161556        2.83945304173537     
 -8.126083576698306E-006
  0.109079894803258      -0.218154949867251        2.09906997678097     
 -6.007219635506544E-006
  0.109079894803258      -0.109079894803258        1.11434711550476     
 -3.189092286470796E-006
  0.109079894803258       6.199650627245017E-018 -6.459168092116600E-017
  1.848515859686111E-022
  0.109079894803258       0.109079894803258       -1.11434711550476     
  3.189092285804662E-006
  0.109079894803258       0.218154949867251       -2.09906997678097     
  6.007219635506544E-006
  0.109079894803258       0.327180849161556       -2.83945304173537     
  8.126083576698306E-006
  0.109079894803258       0.436369536137632       -3.25030256489623     
  9.301872546441103E-006
  0.109079894803258       0.545511771864039       -3.28250292802882     
  9.394025096920444E-006
  0.109079894803258       0.653642386938342       -2.93746225958824     
  8.406571075703084E-006
  0.109079894803258       0.764271786586648       -2.23754633404209     
  6.403517956776739E-006
  0.109079894803258       0.881334751433768       -1.20788704880034     
  3.456789376743430E-006
  0.109079894803258       0.968133451622095      -0.331450524989955     
  9.485610882320472E-007
  0.109079894803258        1.00000000000000      -4.061349361776194E-016
  1.162296535898559E-021
  0.218154949867251       -1.00000000000000       7.650270233790327E-016
 -2.184246187199762E-021
  0.218154949867251      -0.968133451622095       0.624345718486986     
 -1.782583771814394E-006
  0.218154949867251      -0.881334751433768        2.27526900842058     
 -6.496172696657254E-006
  0.218154949867251      -0.764271786586648        4.21481448435712     
 -1.203381344971888E-005
  0.218154949867251      -0.653642386938342        5.53322998974466     
 -1.579805174944937E-005
  0.218154949867251      -0.545511771864039        6.18317514838123     
 -1.765372506312701E-005
  0.218154949867251      -0.436369536137632        6.12252006612976     
 -1.748054735006832E-005
  0.218154949867251      -0.327180849161556        5.34861228385764     
 -1.527094550191066E-005
  0.218154949867251      -0.218154949867251        3.95396976018515     
 -1.128906969416477E-005
  0.218154949867251      -0.109079894803258        2.09906999089776     
 -5.993102843770970E-006
  0.218154949867251       6.199650627245017E-018 -1.216698613895088E-016
  3.473824099150169E-022
  0.218154949867251       0.109079894803258       -2.09906999089776     
  5.993102842882791E-006
  0.218154949867251       0.218154949867251       -3.95396976018515     
  1.128906969416477E-005
  0.218154949867251       0.327180849161556       -5.34861228385764     
  1.527094550191066E-005
  0.218154949867251       0.436369536137632       -6.12252006612976     
  1.748054735006832E-005
  0.218154949867251       0.545511771864039       -6.18317514838123     
  1.765372506312701E-005
  0.218154949867251       0.653642386938342       -5.53322998974466     
  1.579805174944937E-005
  0.218154949867251       0.764271786586648       -4.21481448435712     
  1.203381344971888E-005
  0.218154949867251       0.881334751433768       -2.27526900842058     
  6.496172696657254E-006
  0.218154949867251       0.968133451622095      -0.624345718486986     
  1.782583771814394E-006
  0.218154949867251        1.00000000000000      -7.650270233790327E-016
  2.184246187199762E-021
  0.327180849161556       -1.00000000000000       1.034867101659270E-015
 -2.881064749499946E-021
  0.327180849161556      -0.968133451622095       0.844564733504699     
 -2.351263921784863E-006
  0.327180849161556      -0.881334751433768        3.07780113941516     
 -8.568582726464768E-006
  0.327180849161556      -0.764271786586648        5.70146245317291     
 -1.587284247950294E-005
  0.327180849161556      -0.653642386938342        7.48490903891138     
 -2.083794872387301E-005
  0.327180849161556      -0.545511771864039        8.36410263861571     
 -2.328561923725658E-005
  0.327180849161556      -0.436369536137632        8.28205331584377     
 -2.305719434403386E-005
  0.327180849161556      -0.327180849161556        7.23517303695628     
 -2.014268496441929E-005
  0.327180849161556      -0.218154949867251        5.34861266429268     
 -1.489051045933110E-005
  0.327180849161556      -0.109079894803258        2.83945326279549     
 -7.905023447829507E-006
  0.327180849161556       6.199650627245017E-018 -1.645852145971362E-016
  4.582044005672180E-022
  0.327180849161556       0.109079894803258       -2.83945326279549     
  7.905023454490845E-006
  0.327180849161556       0.218154949867251       -5.34861266429268     
  1.489051045933110E-005
  0.327180849161556       0.327180849161556       -7.23517303695628     
  2.014268496441929E-005
  0.327180849161556       0.436369536137632       -8.28205331584377     
  2.305719434403386E-005
  0.327180849161556       0.545511771864039       -8.36410263861571     
  2.328561923725658E-005
  0.327180849161556       0.653642386938342       -7.48490903891138     
  2.083794872387301E-005
  0.327180849161556       0.764271786586648       -5.70146245317291     
  1.587284247950294E-005
  0.327180849161556       0.881334751433768       -3.07780113941516     
  8.568582726464768E-006
  0.327180849161556       0.968133451622095      -0.844564733504699     
  2.351263921784863E-006
  0.327180849161556        1.00000000000000      -1.034867101659270E-015
  2.881064749499946E-021
  0.436369536137632       -1.00000000000000       1.184605228905612E-015
 -3.394565853733876E-021
  0.436369536137632      -0.968133451622095       0.966767421492878     
 -2.770336982704791E-006
  0.436369536137632      -0.881334751433768        3.52313772216454     
 -1.009578778576881E-005
  0.436369536137632      -0.764271786586648        6.52642472024529     
 -1.870190840236319E-005
  0.436369536137632      -0.653642386938342        8.56792371808985     
 -2.455196089634626E-005
  0.436369536137632      -0.545511771864039        9.57433056372265     
 -2.743588733622460E-005
  0.436369536137632      -0.436369536137632        9.48040927022714     
 -2.716674954328369E-005
  0.436369536137632      -0.327180849161556        8.28205264025996     
 -2.373277814982089E-005
  0.436369536137632      -0.218154949867251        6.12252000218481     
 -1.754449229274258E-005
  0.436369536137632      -0.109079894803258        3.25030255280850     
 -9.313960278589661E-006
  0.436369536137632       6.199650627245017E-018 -1.883995592281508E-016
  5.398715912693414E-022