 VARIABLES = "X", "Uxx", "Error Uxx" 
 ZONE I=          21 ,DATAPACKING=POINT
  -1.00000000000000       3.407946182702168E-003  3.407946182700959E-003
 -0.968133451622095       0.986814052093986       4.006624749945953E-004
 -0.881334751433768        3.59448735152515      -2.450994798293138E-004
 -0.764271786586648        6.65945783922895       4.077023830220128E-004
 -0.653642386938342        8.74182201682241      -2.130258015426989E-004
 -0.545511771864039        9.76866653653857      -2.268443643700380E-004
 -0.436369536137632        9.67284461624853      -2.188686373738591E-004
 -0.327180849161556        8.45016408397001      -1.906096815531555E-004
 -0.218154949867251        6.24679610379195      -1.414471644771709E-004
 -0.109079894803258        3.31627805306122      -7.486401595580006E-005
  6.199650627245017E-018 -1.326716514427062E-014 -1.307493706160107E-014
  0.109079894803258       -3.31627805306121       7.486401596334957E-005
  0.218154949867251       -6.24679610379197       1.414471644656246E-004
  0.327180849161556       -8.45016408397000       1.906096815567082E-004
  0.436369536137632       -9.67284461624850       2.188686373987281E-004
  0.545511771864039       -9.76866653653860       2.268443643433926E-004
  0.653642386938342       -8.74182201682241       2.130258015480280E-004
  0.764271786586648       -6.65945783922895      -4.077023830229010E-004
  0.881334751433768       -3.59448735152515       2.450994798239847E-004
  0.968133451622095      -0.986814052094019      -4.006624750275689E-004
   1.00000000000000      -3.407946182733212E-003 -3.407946182732004E-003
