 VARIABLES = "X", "Y", "Uxy", "Error Uxy" 
 ZONE I=          21 , J=          21 ,DATAPACKING=POINT
  -1.00000000000000       -1.00000000000000        9.86982943874185     
  2.250376524930431E-004
  -1.00000000000000      -0.968133451622095        9.82024314509417     
  5.579154623447380E-005
  -1.00000000000000      -0.881334751433768        9.19184146913878     
  1.610112630707761E-004
  -1.00000000000000      -0.764271786586648        7.28467556195424     
  2.441663680219364E-005
  -1.00000000000000      -0.653642386938342        4.58103884013559     
  2.736599444830290E-007
  -1.00000000000000      -0.545511771864039        1.40634689391699     
 -5.548143258149452E-007
  -1.00000000000000      -0.436369536137632       -1.95983022673184     
 -1.699745169059241E-007
  -1.00000000000000      -0.327180849161556       -5.09907856783645     
 -5.545595884726140E-007
  -1.00000000000000      -0.218154949867251       -7.64099949416967     
 -7.198959188770004E-007
  -1.00000000000000      -0.109079894803258       -9.29574692846763     
 -8.925974483986465E-007
  -1.00000000000000       6.199650627245017E-018  -9.86960537370154     
 -9.726121792397180E-007
  -1.00000000000000       0.109079894803258       -9.29574692846763     
 -8.925974501750034E-007
  -1.00000000000000       0.218154949867251       -7.64099949416968     
 -7.198959277587846E-007
  -1.00000000000000       0.327180849161556       -5.09907856783643     
 -5.545595680445103E-007
  -1.00000000000000       0.436369536137632       -1.95983022673184     
 -1.699745184602364E-007
  -1.00000000000000       0.545511771864039        1.40634689391700     
 -5.548143129363581E-007
  -1.00000000000000       0.653642386938342        4.58103884013558     
  2.736599356012448E-007
  -1.00000000000000       0.764271786586648        7.28467556195423     
  2.441663678887096E-005
  -1.00000000000000       0.881334751433768        9.19184146913878     
  1.610112630761051E-004
  -1.00000000000000       0.968133451622095        9.82024314509418     
  5.579154623980287E-005
  -1.00000000000000        1.00000000000000        9.86982943874186     
  2.250376525019249E-004
 -0.968133451622095       -1.00000000000000        9.82024314509419     
  5.579154625046101E-005
 -0.968133451622095      -0.968133451622095        9.77090597434504     
 -1.117625096043184E-004
 -0.968133451622095      -0.881334751433768        9.14566140563512     
  3.634354857950939E-006
 -0.968133451622095      -0.764271786586648        7.24807715224665     
 -9.979032248974562E-005
 -0.968133451622095      -0.653642386938342        4.55802357542931     
 -7.775958003630734E-005
 -0.968133451622095      -0.545511771864039        1.39928136857178     
 -2.450727480085568E-005
 -0.968133451622095      -0.436369536137632       -1.94998398595071     
  3.321396330524529E-005
 -0.968133451622095      -0.327180849161556       -5.07346065733793     
  8.630420075839140E-005
 -0.968133451622095      -0.218154949867251       -7.60261090325923     
  1.294379155654113E-004
 -0.968133451622095      -0.109079894803258       -9.24904484108808     
  1.574524881391426E-004
 -0.968133451622095       6.199650627245017E-018  -9.82002020576277     
  1.671477851630243E-004
 -0.968133451622095       0.109079894803258       -9.24904484108808     
  1.574524881409189E-004
 -0.968133451622095       0.218154949867251       -7.60261090325923     
  1.294379155600822E-004
 -0.968133451622095       0.327180849161556       -5.07346065733792     
  8.630420075927958E-005
 -0.968133451622095       0.436369536137632       -1.94998398595073     
  3.321396329303283E-005
 -0.968133451622095       0.545511771864039        1.39928136857178     
 -2.450727480463044E-005
 -0.968133451622095       0.653642386938342        4.55802357542931     
 -7.775958003364281E-005
 -0.968133451622095       0.764271786586648        7.24807715224665     
 -9.979032249596287E-005
 -0.968133451622095       0.881334751433768        9.14566140563511     
  3.634354852621868E-006
 -0.968133451622095       0.968133451622095        9.77090597434504     
 -1.117625096060948E-004
 -0.968133451622095        1.00000000000000        9.82024314509420     
  5.579154625934279E-005
 -0.881334751433768       -1.00000000000000        9.19184146913878     
  1.610112630761051E-004
 -0.881334751433768      -0.968133451622095        9.14566140563511     
  3.634354852621868E-006
 -0.881334751433768      -0.881334751433768        8.56042651174221     
  1.047190704639434E-004
 -0.881334751433768      -0.764271786586648        6.78426950892968     
 -1.310805806120641E-005
 -0.881334751433768      -0.653642386938342        4.26635364307384     
 -2.228822504246608E-005
 -0.881334751433768      -0.545511771864039        1.30974073865541     
 -7.437275550525868E-006
 -0.881334751433768      -0.436369536137632       -1.82520365345256     
  9.485937842335090E-006
 -0.881334751433768      -0.327180849161556       -4.74880767951857     
  2.457587024373709E-005
 -0.881334751433768      -0.218154949867251       -7.11611648935753     
  3.693057004561240E-005
 -0.881334751433768      -0.109079894803258       -8.65719439571190     
  4.491266935957583E-005
 -0.881334751433768       6.199650627245017E-018  -9.19163279579320     
  4.766208250828186E-005
 -0.881334751433768       0.109079894803258       -8.65719439571190     
  4.491266936312854E-005
 -0.881334751433768       0.218154949867251       -7.11611648935753     
  3.693057004561240E-005
 -0.881334751433768       0.327180849161556       -4.74880767951857     
  2.457587024728980E-005
 -0.881334751433768       0.436369536137632       -1.82520365345257     
  9.485937841224867E-006
 -0.881334751433768       0.545511771864039        1.30974073865541     
 -7.437275546529065E-006
 -0.881334751433768       0.653642386938342        4.26635364307384     
 -2.228822503802519E-005
 -0.881334751433768       0.764271786586648        6.78426950892967     
 -1.310805806387094E-005
 -0.881334751433768       0.881334751433768        8.56042651174221     
  1.047190704728251E-004
 -0.881334751433768       0.968133451622095        9.14566140563512     
  3.634354859727296E-006
 -0.881334751433768        1.00000000000000        9.19184146913879     
  1.610112630814342E-004
 -0.764271786586648       -1.00000000000000        7.28467556195423     
  2.441663678975914E-005
 -0.764271786586648      -0.968133451622095        7.24807715224665     
 -9.979032249507469E-005
 -0.764271786586648      -0.881334751433768        6.78426950892967     
 -1.310805806653548E-005
 -0.764271786586648      -0.764271786586648        5.37663780030811     
 -8.654976994204588E-005
 -0.764271786586648      -0.653642386938342        3.38115079842279     
 -6.555877353298101E-005
 -0.764271786586648      -0.545511771864039        1.03798965456624     
 -2.059759585071319E-005
 -0.764271786586648      -0.436369536137632       -1.44650193266892     
  2.800788360945994E-005
 -0.764271786586648      -0.327180849161556       -3.76350303337540     
  7.278789869191726E-005
 -0.764271786586648      -0.218154949867251       -5.63963162986308     
  1.091551109029254E-004
 -0.764271786586648      -0.109079894803258       -6.86095954344592     
  1.327815217955219E-004
 -0.764271786586648       6.199650627245017E-018  -7.28451018512239     
  1.409601950523864E-004
 -0.764271786586648       0.109079894803258       -6.86095954344591     
  1.327815217990747E-004
 -0.764271786586648       0.218154949867251       -5.63963162986309     
  1.091551108958200E-004
 -0.764271786586648       0.327180849161556       -3.76350303337538     
  7.278789870346358E-005
 -0.764271786586648       0.436369536137632       -1.44650193266891     
  2.800788361212447E-005
 -0.764271786586648       0.545511771864039        1.03798965456624     
 -2.059759585271159E-005
 -0.764271786586648       0.653642386938342        3.38115079842279     
 -6.555877353475736E-005
 -0.764271786586648       0.764271786586648        5.37663780030810     
 -8.654976994915131E-005
 -0.764271786586648       0.881334751433768        6.78426950892967     
 -1.310805806564730E-005
 -0.764271786586648       0.968133451622095        7.24807715224665     
 -9.979032249063380E-005
 -0.764271786586648        1.00000000000000        7.28467556195424     
  2.441663680308181E-005
 -0.653642386938342       -1.00000000000000        4.58103884013558     
  2.736599391539585E-007
 -0.653642386938342      -0.968133451622095        4.55802357542932     
 -7.775958002476102E-005
 -0.653642386938342      -0.881334751433768        4.26635364307383     
 -2.228822504424244E-005
 -0.653642386938342      -0.764271786586648        3.38115079842279     
 -6.555877352942829E-005
 -0.653642386938342      -0.653642386938342        2.12626945430841     
 -4.822720078223597E-005
 -0.653642386938342      -0.545511771864039       0.652749855883935     
 -1.510192852638426E-005
 -0.653642386938342      -0.436369536137632      -0.909646761826381     
  2.060769376677207E-005
 -0.653642386938342      -0.327180849161556       -2.36671536353717     
  5.356488219687705E-005
 -0.653642386938342      -0.218154949867251       -3.54653701743296     
  8.031886854409365E-005
 -0.653642386938342      -0.109079894803258       -4.31458091466366     
  9.770505732120682E-005
 -0.653642386938342       6.199650627245017E-018  -4.58093484131182     
  1.037251638278391E-004
 -0.653642386938342       0.109079894803258       -4.31458091466366     
  9.770505732120682E-005
 -0.653642386938342       0.218154949867251       -3.54653701743296     
  8.031886854986681E-005
 -0.653642386938342       0.327180849161556       -2.36671536353715     
  5.356488220975564E-005
 -0.653642386938342       0.436369536137632      -0.909646761826390     
  2.060769375722415E-005
 -0.653642386938342       0.545511771864039       0.652749855883935     
 -1.510192852605119E-005
 -0.653642386938342       0.653642386938342        2.12626945430842     
 -4.822720077157783E-005
 -0.653642386938342       0.764271786586648        3.38115079842279     
 -6.555877352987238E-005
 -0.653642386938342       0.881334751433768        4.26635364307382     
 -2.228822505578876E-005
 -0.653642386938342       0.968133451622095        4.55802357542931     
 -7.775958003009009E-005
 -0.653642386938342        1.00000000000000        4.58103884013558     
  2.736599391539585E-007
 -0.545511771864039       -1.00000000000000        1.40634689391699     
 -5.548143204858746E-007
 -0.545511771864039      -0.968133451622095        1.39928136857178     
 -2.450727480174386E-005
 -0.545511771864039      -0.881334751433768        1.30974073865541     
 -7.437275548971556E-006
 -0.545511771864039      -0.764271786586648        1.03798965456624     
 -2.059759584982501E-005
 -0.545511771864039      -0.653642386938342       0.652749855883935     
 -1.510192852638426E-005
 -0.545511771864039      -0.545511771864039       0.200389641817564     
 -4.727214569621996E-006
 -0.545511771864039      -0.436369536137632      -0.279255195753438     
  6.453271053974419E-006
 -0.545511771864039      -0.327180849161556      -0.726565068851835     
  1.677409035383270E-005
 -0.545511771864039      -0.218154949867251       -1.08876206744426     
  2.515190699714509E-005
 -0.545511771864039      -0.109079894803258       -1.32454617383492     
  3.059645156455737E-005
 -0.545511771864039       6.199650627245017E-018  -1.40631496700523     
  3.248172608460997E-005
 -0.545511771864039       0.109079894803258       -1.32454617383493     
  3.059645155811808E-005
 -0.545511771864039       0.218154949867251       -1.08876206744426     
  2.515190699492464E-005
 -0.545511771864039       0.327180849161556      -0.726565068851841     
  1.677409034794852E-005
 -0.545511771864039       0.436369536137632      -0.279255195753440     
  6.453271052031528E-006
 -0.545511771864039       0.545511771864039       0.200389641817564     
 -4.727214570260374E-006
 -0.545511771864039       0.653642386938342       0.652749855883935     
 -1.510192852638426E-005
 -0.545511771864039       0.764271786586648        1.03798965456624     
 -2.059759584871479E-005
 -0.545511771864039       0.881334751433768        1.30974073865542     
 -7.437275543642485E-006
 -0.545511771864039       0.968133451622095        1.39928136857178     
 -2.450727480263204E-005
 -0.545511771864039        1.00000000000000        1.40634689391699     
 -5.548143278133466E-007
 -0.436369536137632       -1.00000000000000       -1.95983022673184     
 -1.699745186822810E-007
 -0.436369536137632      -0.968133451622095       -1.94998398595073     
  3.321396329125648E-005
 -0.436369536137632      -0.881334751433768       -1.82520365345256     
  9.485937847886206E-006
 -0.436369536137632      -0.764271786586648       -1.44650193266891     
  2.800788361723150E-005
 -0.436369536137632      -0.653642386938342      -0.909646761826384     
  2.060769376310834E-005
 -0.436369536137632      -0.545511771864039      -0.279255195753438     
  6.453271054529530E-006
 -0.436369536137632      -0.436369536137632       0.389159158367519     
 -8.805745150552990E-006
 -0.436369536137632      -0.327180849161556        1.01251276607676     
 -2.288844930942169E-005
 -0.436369536137632      -0.218154949867251        1.51725638868034     
 -3.432054146101926E-005
 -0.436369536137632      -0.109079894803258        1.84583593095836     
 -4.174971850745557E-005
 -0.436369536137632       6.199650627245017E-018   1.95978573463179     
 -4.432212552907266E-005
 -0.436369536137632       0.109079894803258        1.84583593095837     
 -4.174971850123832E-005
 -0.436369536137632       0.218154949867251        1.51725638868033     
 -3.432054146967900E-005
 -0.436369536137632       0.327180849161556        1.01251276607676     
 -2.288844931142009E-005
 -0.436369536137632       0.436369536137632       0.389159158367526     
 -8.805745144002675E-006
 -0.436369536137632       0.545511771864039      -0.279255195753443     
  6.453271048811882E-006
 -0.436369536137632       0.653642386938342      -0.909646761826407     
  2.060769374012672E-005
 -0.436369536137632       0.764271786586648       -1.44650193266891     
  2.800788361878581E-005
 -0.436369536137632       0.881334751433768       -1.82520365345256     
  9.485937847442116E-006
 -0.436369536137632       0.968133451622095       -1.94998398595072     
  3.321396329436510E-005
 -0.436369536137632        1.00000000000000       -1.95983022673182     
 -1.699745055816493E-007
 -0.327180849161556       -1.00000000000000       -5.09907856783644     
 -5.545595822553651E-007
 -0.327180849161556      -0.968133451622095       -5.07346065733793     
  8.630420075661505E-005
 -0.327180849161556      -0.881334751433768       -4.74880767951857     
  2.457587024284891E-005
 -0.327180849161556      -0.764271786586648       -3.76350303337539     
  7.278789869369362E-005
 -0.327180849161556      -0.653642386938342       -2.36671536353715     
  5.356488221197608E-005
 -0.327180849161556      -0.545511771864039      -0.726565068851840     
  1.677409034861466E-005
 -0.327180849161556      -0.436369536137632        1.01251276607675     
 -2.288844931319645E-005
 -0.327180849161556      -0.327180849161556        2.63435172840061     
 -5.949304749774953E-005
 -0.327180849161556      -0.218154949867251        3.94759169845757     
 -8.920809165324783E-005
 -0.327180849161556      -0.109079894803258        4.80248865790157     
 -1.085184634090908E-004
 -0.327180849161556       6.199650627245017E-018   5.09896280846572     
 -1.152048111388027E-004
 -0.327180849161556       0.109079894803258        4.80248865790157     
 -1.085184634099789E-004
 -0.327180849161556       0.218154949867251        3.94759169845758     
 -8.920809164303378E-005
 -0.327180849161556       0.327180849161556        2.63435172840061     
 -5.949304749863771E-005
 -0.327180849161556       0.436369536137632        1.01251276607675     
 -2.288844931452871E-005
 -0.327180849161556       0.545511771864039      -0.726565068851839     
  1.677409034994692E-005
 -0.327180849161556       0.653642386938342       -2.36671536353714     
  5.356488222219014E-005
 -0.327180849161556       0.764271786586648       -3.76350303337539     
  7.278789869635816E-005
 -0.327180849161556       0.881334751433768       -4.74880767951858     
  2.457587023929619E-005
 -0.327180849161556       0.968133451622095       -5.07346065733793     
  8.630420075483869E-005
 -0.327180849161556        1.00000000000000       -5.09907856783645     
 -5.545595911371493E-007
 -0.218154949867251       -1.00000000000000       -7.64099949416966     
 -7.198959117715731E-007
 -0.218154949867251      -0.968133451622095       -7.60261090325923     
  1.294379155636349E-004
 -0.218154949867251      -0.881334751433768       -7.11611648935753     
  3.693057004294786E-005
 -0.218154949867251      -0.764271786586648       -5.63963162986309     
  1.091551109002609E-004
 -0.218154949867251      -0.653642386938342       -3.54653701743296     
  8.031886854942272E-005
 -0.218154949867251      -0.545511771864039       -1.08876206744426     
  2.515190699048375E-005
 -0.218154949867251      -0.436369536137632        1.51725638868034     
 -3.432054146768060E-005
 -0.218154949867251      -0.327180849161556        3.94759169845759     
 -8.920809163681653E-005
 -0.218154949867251      -0.218154949867251        5.91548958695517     
 -1.337648793438007E-004
 -0.218154949867251      -0.109079894803258        7.19655775403194     
 -1.627202156653240E-004
 -0.218154949867251       6.199650627245017E-018   7.64082602806568     
 -1.727462080642894E-004
 -0.218154949867251       0.109079894803258        7.19655775403194     
 -1.627202156679886E-004
 -0.218154949867251       0.218154949867251        5.91548958695517     
 -1.337648793438007E-004
 -0.218154949867251       0.327180849161556        3.94759169845758     
 -8.920809165102739E-005
 -0.218154949867251       0.436369536137632        1.51725638868034     
 -3.432054146923491E-005
 -0.218154949867251       0.545511771864039       -1.08876206744426     
  2.515190699425851E-005
 -0.218154949867251       0.653642386938342       -3.54653701743295     
  8.031886855919268E-005
 -0.218154949867251       0.764271786586648       -5.63963162986309     
  1.091551109011490E-004
 -0.218154949867251       0.881334751433768       -7.11611648935753     
  3.693057004472422E-005
 -0.218154949867251       0.968133451622095       -7.60261090325923     
  1.294379155600822E-004
 -0.218154949867251        1.00000000000000       -7.64099949416967     
 -7.198959233178925E-007
 -0.109079894803258       -1.00000000000000       -9.29574692846764     
 -8.925974608331444E-007
 -0.109079894803258      -0.968133451622095       -9.24904484108808     
  1.574524881426953E-004
 -0.109079894803258      -0.881334751433768       -8.65719439571190     
  4.491266935957583E-005
 -0.109079894803258      -0.764271786586648       -6.86095954344592     
  1.327815217955219E-004
 -0.109079894803258      -0.653642386938342       -4.31458091466367     
  9.770505731765411E-005
 -0.109079894803258      -0.545511771864039       -1.32454617383493     
  3.059645155789603E-005
 -0.109079894803258      -0.436369536137632        1.84583593095837     
 -4.174971850035014E-005
 -0.109079894803258      -0.327180849161556        4.80248865790156     
 -1.085184634161962E-004
 -0.109079894803258      -0.218154949867251        7.19655775403194     
 -1.627202156617713E-004
 -0.109079894803258      -0.109079894803258        8.75505615314165     
 -1.979433506580364E-004
 -0.109079894803258       6.199650627245017E-018   9.29553589625849     
 -2.101396116831467E-004
 -0.109079894803258       0.109079894803258        8.75505615314165     
 -1.979433506615891E-004
 -0.109079894803258       0.218154949867251        7.19655775403194     
 -1.627202156617713E-004
 -0.109079894803258       0.327180849161556        4.80248865790156     
 -1.085184634197489E-004
 -0.109079894803258       0.436369536137632        1.84583593095838     
 -4.174971849169040E-005
 -0.109079894803258       0.545511771864039       -1.32454617383493     
  3.059645156167079E-005
 -0.109079894803258       0.653642386938342       -4.31458091466368     
  9.770505730610779E-005
 -0.109079894803258       0.764271786586648       -6.86095954344591     
  1.327815218044037E-004
 -0.109079894803258       0.881334751433768       -8.65719439571190     
  4.491266935602312E-005
 -0.109079894803258       0.968133451622095       -9.24904484108808     
  1.574524881409189E-004
 -0.109079894803258        1.00000000000000       -9.29574692846764     
 -8.925974643858581E-007
  6.199650627245017E-018  -1.00000000000000       -9.86960537370153     
 -9.726121739106475E-007
  6.199650627245017E-018 -0.968133451622095       -9.82002020576277     
  1.671477851630243E-004
  6.199650627245017E-018 -0.881334751433768       -9.19163279579320     
  4.766208250828186E-005
  6.199650627245017E-018 -0.764271786586648       -7.28451018512239     
  1.409601950541628E-004
  6.199650627245017E-018 -0.653642386938342       -4.58093484131181     
  1.037251638340564E-004
  6.199650627245017E-018 -0.545511771864039       -1.40631496700523     
  3.248172608061317E-005
  6.199650627245017E-018 -0.436369536137632        1.95978573463178     
 -4.432212553506787E-005
  6.199650627245017E-018 -0.327180849161556        5.09896280846573     
 -1.152048111308090E-004
  6.199650627245017E-018 -0.218154949867251        7.64082602806568     
 -1.727462080687303E-004
  6.199650627245017E-018 -0.109079894803258        9.29553589625850     
 -2.101396116795939E-004
  6.199650627245017E-018  6.199650627245017E-018   9.86938131374795     
 -2.230873414106327E-004
  6.199650627245017E-018  0.109079894803258        9.29553589625849     
 -2.101396116831467E-004
  6.199650627245017E-018  0.218154949867251        7.64082602806568     
 -1.727462080642894E-004
  6.199650627245017E-018  0.327180849161556        5.09896280846572     
 -1.152048111379145E-004
  6.199650627245017E-018  0.436369536137632        1.95978573463179     
 -4.432212552574200E-005
  6.199650627245017E-018  0.545511771864039       -1.40631496700523     
  3.248172607928090E-005
  6.199650627245017E-018  0.653642386938342       -4.58093484131181     
  1.037251638358327E-004
  6.199650627245017E-018  0.764271786586648       -7.28451018512238     
  1.409601950550510E-004
  6.199650627245017E-018  0.881334751433768       -9.19163279579320     
  4.766208250828186E-005
  6.199650627245017E-018  0.968133451622095       -9.82002020576278     
  1.671477851612480E-004
  6.199650627245017E-018   1.00000000000000       -9.86960537370154     
 -9.726121810160748E-007
  0.109079894803258       -1.00000000000000       -9.29574692846763     
 -8.925974572804307E-007
  0.109079894803258      -0.968133451622095       -9.24904484108808     
  1.574524881426953E-004
  0.109079894803258      -0.881334751433768       -8.65719439571190     
  4.491266936135219E-005
  0.109079894803258      -0.764271786586648       -6.86095954344591     
  1.327815217972983E-004
  0.109079894803258      -0.653642386938342       -4.31458091466366     
  9.770505731943047E-005
  0.109079894803258      -0.545511771864039       -1.32454617383493     
  3.059645155811808E-005
  0.109079894803258      -0.436369536137632        1.84583593095837     
 -4.174971850123832E-005
  0.109079894803258      -0.327180849161556        4.80248865790156     
 -1.085184634170844E-004
  0.109079894803258      -0.218154949867251        7.19655775403194     
 -1.627202156635477E-004
  0.109079894803258      -0.109079894803258        8.75505615314165     
 -1.979433506615891E-004
  0.109079894803258       6.199650627245017E-018   9.29553589625849     
 -2.101396116831467E-004
  0.109079894803258       0.109079894803258        8.75505615314164     
 -1.979433506633654E-004
  0.109079894803258       0.218154949867251        7.19655775403194     
 -1.627202156671004E-004
  0.109079894803258       0.327180849161556        4.80248865790156     
 -1.085184634215253E-004
  0.109079894803258       0.436369536137632        1.84583593095838     
 -4.174971849213449E-005
  0.109079894803258       0.545511771864039       -1.32454617383492     
  3.059645156255897E-005
  0.109079894803258       0.653642386938342       -4.31458091466367     
  9.770505730877233E-005
  0.109079894803258       0.764271786586648       -6.86095954344590     
  1.327815218061801E-004
  0.109079894803258       0.881334751433768       -8.65719439571190     
  4.491266935957583E-005
  0.109079894803258       0.968133451622095       -9.24904484108808     
  1.574524881426953E-004
  0.109079894803258        1.00000000000000       -9.29574692846764     
 -8.925974590567876E-007
  0.218154949867251       -1.00000000000000       -7.64099949416966     
 -7.198959135479299E-007
  0.218154949867251      -0.968133451622095       -7.60261090325923     
  1.294379155591940E-004
  0.218154949867251      -0.881334751433768       -7.11611648935753     
  3.693057003850697E-005
  0.218154949867251      -0.764271786586648       -5.63963162986309     
  1.091551108967082E-004
  0.218154949867251      -0.653642386938342       -3.54653701743296     
  8.031886854942272E-005
  0.218154949867251      -0.545511771864039       -1.08876206744426     
  2.515190699092784E-005
  0.218154949867251      -0.436369536137632        1.51725638868034     
 -3.432054146856878E-005
  0.218154949867251      -0.327180849161556        3.94759169845759     
 -8.920809163726062E-005
  0.218154949867251      -0.218154949867251        5.91548958695517     
 -1.337648793420243E-004
  0.218154949867251      -0.109079894803258        7.19655775403194     
 -1.627202156644358E-004
  0.218154949867251       6.199650627245017E-018   7.64082602806568     
 -1.727462080651776E-004
  0.218154949867251       0.109079894803258        7.19655775403194     
 -1.627202156662122E-004
  0.218154949867251       0.218154949867251        5.91548958695517     
 -1.337648793411361E-004
  0.218154949867251       0.327180849161556        3.94759169845758     
 -8.920809165147148E-005
  0.218154949867251       0.436369536137632        1.51725638868034     
 -3.432054146945696E-005
  0.218154949867251       0.545511771864039       -1.08876206744426     
  2.515190699226011E-005
  0.218154949867251       0.653642386938342       -3.54653701743295     
  8.031886855608406E-005
  0.218154949867251       0.764271786586648       -5.63963162986308     
  1.091551109020372E-004
  0.218154949867251       0.881334751433768       -7.11611648935753     
  3.693057003939515E-005
  0.218154949867251       0.968133451622095       -7.60261090325923     
  1.294379155574177E-004
  0.218154949867251        1.00000000000000       -7.64099949416968     
 -7.198959286469631E-007
  0.327180849161556       -1.00000000000000       -5.09907856783643     
 -5.545595724854024E-007
  0.327180849161556      -0.968133451622095       -5.07346065733791     
  8.630420076904954E-005
  0.327180849161556      -0.881334751433768       -4.74880767951856     
  2.457587025528341E-005
  0.327180849161556      -0.764271786586648       -3.76350303337539     
  7.278789870035496E-005
  0.327180849161556      -0.653642386938342       -2.36671536353715     
  5.356488221552880E-005
  0.327180849161556      -0.545511771864039      -0.726565068851839     
  1.677409034950283E-005
  0.327180849161556      -0.436369536137632        1.01251276607675     
 -2.288844931341849E-005
  0.327180849161556      -0.327180849161556        2.63435172840061     
 -5.949304750219042E-005
  0.327180849161556      -0.218154949867251        3.94759169845756     
 -8.920809166301780E-005
  0.327180849161556      -0.109079894803258        4.80248865790156     
 -1.085184634161962E-004
  0.327180849161556       6.199650627245017E-018   5.09896280846571     
 -1.152048111459081E-004
  0.327180849161556       0.109079894803258        4.80248865790156     
 -1.085184634188607E-004
  0.327180849161556       0.218154949867251        3.94759169845758     
 -8.920809165058330E-005
  0.327180849161556       0.327180849161556        2.63435172840061     
 -5.949304750352269E-005
  0.327180849161556       0.436369536137632        1.01251276607675     
 -2.288844931497280E-005
  0.327180849161556       0.545511771864039      -0.726565068851838     
  1.677409035083510E-005
  0.327180849161556       0.653642386938342       -2.36671536353714     
  5.356488222529876E-005
  0.327180849161556       0.764271786586648       -3.76350303337539     
  7.278789870079905E-005
  0.327180849161556       0.881334751433768       -4.74880767951857     
  2.457587025084251E-005
  0.327180849161556       0.968133451622095       -5.07346065733792     
  8.630420076372047E-005
  0.327180849161556        1.00000000000000       -5.09907856783644     
 -5.545595813671866E-007
  0.436369536137632       -1.00000000000000       -1.95983022673184     
 -1.699745224570393E-007
  0.436369536137632      -0.968133451622095       -1.94998398595073     
  3.321396328814785E-005
  0.436369536137632      -0.881334751433768       -1.82520365345256     
  9.485937843223269E-006
  0.436369536137632      -0.764271786586648       -1.44650193266891     
  2.800788361234652E-005
  0.436369536137632      -0.653642386938342      -0.909646761826389     
  2.060769375877847E-005
  0.436369536137632      -0.545511771864039      -0.279255195753438     
  6.453271054140952E-006
  0.436369536137632      -0.436369536137632       0.389159158367520     
 -8.805745149886857E-006
  0.436369536137632      -0.327180849161556        1.01251276607676     
 -2.288844930342648E-005
  0.436369536137632      -0.218154949867251        1.51725638868034     
 -3.432054145990904E-005
  0.436369536137632      -0.109079894803258        1.84583593095837     
 -4.174971850168241E-005
  0.436369536137632       6.199650627245017E-018   1.95978573463180     
 -4.432212551974679E-005