  TITLE="Lid driven cavity"
  VARIABLES = "x" "y" "psi"
  ZONE T="Rectangular zone"
  STRANDID=0, SOLUTIONTIME=0
  I = 21 , J =21 , K= 1
  DATAPACKING=POINT DT=(SINGLE SINGLE SINGLE )
            0.0000000E+00            0.0000000E+00            0.1000000E+01
            0.0000000E+00            0.6155830E-02            0.1000000E+01
            0.0000000E+00            0.2447174E-01            0.1000000E+01
            0.0000000E+00            0.5449674E-01            0.1000000E+01
            0.0000000E+00            0.9549150E-01            0.1000000E+01
            0.0000000E+00            0.1464466E+00            0.1000000E+01
            0.0000000E+00            0.2061074E+00            0.1000000E+01
            0.0000000E+00            0.2730048E+00            0.1000000E+01
            0.0000000E+00            0.3454915E+00            0.1000000E+01
            0.0000000E+00            0.4217828E+00            0.1000000E+01
            0.0000000E+00            0.5000000E+00            0.1000000E+01
            0.0000000E+00            0.5782172E+00            0.1000000E+01
            0.0000000E+00            0.6545085E+00            0.1000000E+01
            0.0000000E+00            0.7269952E+00            0.1000000E+01
            0.0000000E+00            0.7938926E+00            0.1000000E+01
            0.0000000E+00            0.8535534E+00            0.1000000E+01
            0.0000000E+00            0.9045085E+00            0.1000000E+01
            0.0000000E+00            0.9455033E+00            0.1000000E+01
            0.0000000E+00            0.9755283E+00            0.1000000E+01
            0.0000000E+00            0.9938442E+00            0.1000000E+01
            0.0000000E+00            0.1000000E+01            0.1000000E+01
            0.6155830E-02            0.0000000E+00            0.1000000E+01
            0.6155830E-02            0.6155830E-02            0.1000001E+01
            0.6155830E-02            0.2447174E-01            0.9999599E+00
            0.6155830E-02            0.5449674E-01            0.9996372E+00
            0.6155830E-02            0.9549150E-01            0.9991295E+00
            0.6155830E-02            0.1464466E+00            0.9989189E+00
            0.6155830E-02            0.2061074E+00            0.9991487E+00
            0.6155830E-02            0.2730048E+00            0.9995295E+00
            0.6155830E-02            0.3454915E+00            0.1000410E+01
            0.6155830E-02            0.4217828E+00            0.1002638E+01
            0.6155830E-02            0.5000000E+00            0.1006765E+01
            0.6155830E-02            0.5782172E+00            0.1012736E+01
            0.6155830E-02            0.6545085E+00            0.1019701E+01
            0.6155830E-02            0.7269952E+00            0.1026826E+01
            0.6155830E-02            0.7938926E+00            0.1033545E+01
            0.6155830E-02            0.8535534E+00            0.1035338E+01
            0.6155830E-02            0.9045085E+00            0.1024232E+01
            0.6155830E-02            0.9455033E+00            0.1009285E+01
            0.6155830E-02            0.9755283E+00            0.1002201E+01
            0.6155830E-02            0.9938442E+00            0.1000388E+01
            0.6155830E-02            0.1000000E+01            0.1000000E+01
            0.2447174E-01            0.0000000E+00            0.1000000E+01
            0.2447174E-01            0.6155830E-02            0.9999524E+00
            0.2447174E-01            0.2447174E-01            0.9989699E+00
            0.2447174E-01            0.5449674E-01            0.9945707E+00
            0.2447174E-01            0.9549150E-01            0.9878941E+00
            0.2447174E-01            0.1464466E+00            0.9851154E+00
            0.2447174E-01            0.2061074E+00            0.9889363E+00
            0.2447174E-01            0.2730048E+00            0.9965921E+00
            0.2447174E-01            0.3454915E+00            0.1014112E+01
            0.2447174E-01            0.4217828E+00            0.1053402E+01
            0.2447174E-01            0.5000000E+00            0.1117233E+01
            0.2447174E-01            0.5782172E+00            0.1202097E+01
            0.2447174E-01            0.6545085E+00            0.1297512E+01
            0.2447174E-01            0.7269952E+00            0.1387610E+01
            0.2447174E-01            0.7938926E+00            0.1444650E+01
            0.2447174E-01            0.8535534E+00            0.1418703E+01
            0.2447174E-01            0.9045085E+00            0.1279082E+01
            0.2447174E-01            0.9455033E+00            0.1118784E+01
            0.2447174E-01            0.9755283E+00            0.1033284E+01
            0.2447174E-01            0.9938442E+00            0.1006049E+01
            0.2447174E-01            0.1000000E+01            0.1000000E+01
            0.5449674E-01            0.0000000E+00            0.1000000E+01
            0.5449674E-01            0.6155830E-02            0.9996411E+00
            0.5449674E-01            0.2447174E-01            0.9946003E+00
            0.5449674E-01            0.5449674E-01            0.9773380E+00
            0.5449674E-01            0.9549150E-01            0.9528813E+00
            0.5449674E-01            0.1464466E+00            0.9442393E+00
            0.5449674E-01            0.2061074E+00            0.9661832E+00
            0.5449674E-01            0.2730048E+00            0.1017504E+01
            0.5449674E-01            0.3454915E+00            0.1126510E+01
            0.5449674E-01            0.4217828E+00            0.1337577E+01
            0.5449674E-01            0.5000000E+00            0.1639660E+01
            0.5449674E-01            0.5782172E+00            0.1978753E+01
            0.5449674E-01            0.6545085E+00            0.2294435E+01
            0.5449674E-01            0.7269952E+00            0.2537599E+01
            0.5449674E-01            0.7938926E+00            0.2633648E+01
            0.5449674E-01            0.8535534E+00            0.2469331E+01
            0.5449674E-01            0.9045085E+00            0.2001696E+01
            0.5449674E-01            0.9455033E+00            0.1467799E+01
            0.5449674E-01            0.9755283E+00            0.1148118E+01
            0.5449674E-01            0.9938442E+00            0.1028462E+01
            0.5449674E-01            0.1000000E+01            0.1000000E+01
            0.9549150E-01            0.0000000E+00            0.1000000E+01
            0.9549150E-01            0.6155830E-02            0.9990802E+00
            0.9549150E-01            0.2447174E-01            0.9869001E+00
            0.9549150E-01            0.5449674E-01            0.9501758E+00
            0.9549150E-01            0.9549150E-01            0.9041766E+00
            0.9549150E-01            0.1464466E+00            0.9007777E+00
            0.9549150E-01            0.2061074E+00            0.9850505E+00
            0.9549150E-01            0.2730048E+00            0.1186186E+01
            0.9549150E-01            0.3454915E+00            0.1582294E+01
            0.9549150E-01            0.4217828E+00            0.2206485E+01
            0.9549150E-01            0.5000000E+00            0.2912884E+01
            0.9549150E-01            0.5782172E+00            0.3522781E+01
            0.9549150E-01            0.6545085E+00            0.3954844E+01
            0.9549150E-01            0.7269952E+00            0.4191926E+01
            0.9549150E-01            0.7938926E+00            0.4203705E+01
            0.9549150E-01            0.8535534E+00            0.3898941E+01
            0.9549150E-01            0.9045085E+00            0.3164457E+01
            0.9549150E-01            0.9455033E+00            0.2162651E+01
            0.9549150E-01            0.9755283E+00            0.1408335E+01
            0.9549150E-01            0.9938442E+00            0.1080143E+01
            0.9549150E-01            0.1000000E+01            0.1000000E+01
            0.1464466E+00            0.0000000E+00            0.1000000E+01
            0.1464466E+00            0.6155830E-02            0.9985945E+00
            0.1464466E+00            0.2447174E-01            0.9809850E+00
            0.1464466E+00            0.5449674E-01            0.9339519E+00
            0.1464466E+00            0.9549150E-01            0.8918406E+00
            0.1464466E+00            0.1464466E+00            0.9445870E+00
            0.1464466E+00            0.2061074E+00            0.1195945E+01
            0.1464466E+00            0.2730048E+00            0.1748350E+01
            0.1464466E+00            0.3454915E+00            0.2665079E+01
            0.1464466E+00            0.4217828E+00            0.3742461E+01
            0.1464466E+00            0.5000000E+00            0.4634153E+01
            0.1464466E+00            0.5782172E+00            0.5198281E+01
            0.1464466E+00            0.6545085E+00            0.5475889E+01
            0.1464466E+00            0.7269952E+00            0.5525778E+01
            0.1464466E+00            0.7938926E+00            0.5376157E+01
            0.1464466E+00            0.8535534E+00            0.4983793E+01
            0.1464466E+00            0.9045085E+00            0.4238138E+01
            0.1464466E+00            0.9455033E+00            0.3045227E+01
            0.1464466E+00            0.9755283E+00            0.1831498E+01
            0.1464466E+00            0.9938442E+00            0.1169875E+01
            0.1464466E+00            0.1000000E+01            0.1000000E+01
            0.2061074E+00            0.0000000E+00            0.1000000E+01
            0.2061074E+00            0.6155830E-02            0.9987742E+00
            0.2061074E+00            0.2447174E-01            0.9860973E+00
            0.2061074E+00            0.5449674E-01            0.9627578E+00
            0.2061074E+00            0.9549150E-01            0.9892115E+00
            0.2061074E+00            0.1464466E+00            0.1199859E+01
            0.2061074E+00            0.2061074E+00            0.1780360E+01
            0.2061074E+00            0.2730048E+00            0.2848400E+01
            0.2061074E+00            0.3454915E+00            0.4203415E+01
            0.2061074E+00            0.4217828E+00            0.5359668E+01
            0.2061074E+00            0.5000000E+00            0.6078472E+01
            0.2061074E+00            0.5782172E+00            0.6425064E+01
            0.2061074E+00            0.6545085E+00            0.6502312E+01
            0.2061074E+00            0.7269952E+00            0.6368619E+01
            0.2061074E+00            0.7938926E+00            0.6045020E+01
            0.2061074E+00            0.8535534E+00            0.5547792E+01
            0.2061074E+00            0.9045085E+00            0.4807394E+01
            0.2061074E+00            0.9455033E+00            0.3681953E+01
            0.2061074E+00            0.9755283E+00            0.2272681E+01
            0.2061074E+00            0.9938442E+00            0.1287096E+01
            0.2061074E+00            0.1000000E+01            0.1000000E+01
            0.2730048E+00            0.0000000E+00            0.1000000E+01
            0.2730048E+00            0.6155830E-02            0.1000364E+01
            0.2730048E+00            0.2447174E-01            0.1010152E+01
            0.2730048E+00            0.5449674E-01            0.1063343E+01
            0.2730048E+00            0.9549150E-01            0.1244337E+01
            0.2730048E+00            0.1464466E+00            0.1726963E+01
            0.2730048E+00            0.2061074E+00            0.2730508E+01
            0.2730048E+00            0.2730048E+00            0.4194583E+01
            0.2730048E+00            0.3454915E+00            0.5608417E+01
            0.2730048E+00            0.4217828E+00            0.6562994E+01
            0.2730048E+00            0.5000000E+00            0.7071750E+01
            0.2730048E+00            0.5782172E+00            0.7266046E+01
            0.2730048E+00            0.6545085E+00            0.7203469E+01
            0.2730048E+00            0.7269952E+00            0.6929705E+01
            0.2730048E+00            0.7938926E+00            0.6436298E+01
            0.2730048E+00            0.8535534E+00            0.5793409E+01
            0.2730048E+00            0.9045085E+00            0.5005229E+01
            0.2730048E+00            0.9455033E+00            0.3973919E+01
            0.2730048E+00            0.9755283E+00            0.2591750E+01
            0.2730048E+00            0.9938442E+00            0.1404222E+01
            0.2730048E+00            0.1000000E+01            0.1000000E+01
            0.3454915E+00            0.0000000E+00            0.1000000E+01
            0.3454915E+00            0.6155830E-02            0.1003255E+01
            0.3454915E+00            0.2447174E-01            0.1049286E+01
            0.3454915E+00            0.5449674E-01            0.1220127E+01
            0.3454915E+00            0.9549150E-01            0.1610783E+01
            0.3454915E+00            0.1464466E+00            0.2393774E+01
            0.3454915E+00            0.2061074E+00            0.3720789E+01
            0.3454915E+00            0.2730048E+00            0.5305570E+01
            0.3454915E+00            0.3454915E+00            0.6586218E+01
            0.3454915E+00            0.4217828E+00            0.7360005E+01
            0.3454915E+00            0.5000000E+00            0.7729871E+01
            0.3454915E+00            0.5782172E+00            0.7815783E+01
            0.3454915E+00            0.6545085E+00            0.7648951E+01
            0.3454915E+00            0.7269952E+00            0.7255169E+01
            0.3454915E+00            0.7938926E+00            0.6644684E+01
            0.3454915E+00            0.8535534E+00            0.5881176E+01
            0.3454915E+00            0.9045085E+00            0.5012912E+01
            0.3454915E+00            0.9455033E+00            0.4036689E+01
            0.3454915E+00            0.9755283E+00            0.2770329E+01
            0.3454915E+00            0.9938442E+00            0.1499461E+01
            0.3454915E+00            0.1000000E+01            0.1000000E+01
            0.4217828E+00            0.0000000E+00            0.1000000E+01
            0.4217828E+00            0.6155830E-02            0.1005811E+01
            0.4217828E+00            0.2447174E-01            0.1084178E+01
            0.4217828E+00            0.5449674E-01            0.1363669E+01
            0.4217828E+00            0.9549150E-01            0.1939218E+01
            0.4217828E+00            0.1464466E+00            0.2926345E+01
            0.4217828E+00            0.2061074E+00            0.4385145E+01
            0.4217828E+00            0.2730048E+00            0.5949442E+01
            0.4217828E+00            0.3454915E+00            0.7126488E+01
            0.4217828E+00            0.4217828E+00            0.7779284E+01
            0.4217828E+00            0.5000000E+00            0.8048362E+01
            0.4217828E+00            0.5782172E+00            0.8049870E+01
            0.4217828E+00            0.6545085E+00            0.7802086E+01
            0.4217828E+00            0.7269952E+00            0.7325494E+01
            0.4217828E+00            0.7938926E+00            0.6617844E+01
            0.4217828E+00            0.8535534E+00            0.5770229E+01
            0.4217828E+00            0.9045085E+00            0.4856237E+01
            0.4217828E+00            0.9455033E+00            0.3927817E+01
            0.4217828E+00            0.9755283E+00            0.2803567E+01
            0.4217828E+00            0.9938442E+00            0.1554607E+01
            0.4217828E+00            0.1000000E+01            0.1000000E+01
            0.5000000E+00            0.0000000E+00            0.1000000E+01
            0.5000000E+00            0.6155830E-02            0.1006346E+01
            0.5000000E+00            0.2447174E-01            0.1095559E+01
            0.5000000E+00            0.5449674E-01            0.1419234E+01
            0.5000000E+00            0.9549150E-01            0.2083672E+01
            0.5000000E+00            0.1464466E+00            0.3127821E+01
            0.5000000E+00            0.2061074E+00            0.4549900E+01
            0.5000000E+00            0.2730048E+00            0.6033997E+01
            0.5000000E+00            0.3454915E+00            0.7139479E+01
            0.5000000E+00            0.4217828E+00            0.7746001E+01
            0.5000000E+00            0.5000000E+00            0.7963616E+01
            0.5000000E+00            0.5782172E+00            0.7939728E+01
            0.5000000E+00            0.6545085E+00            0.7639501E+01
            0.5000000E+00            0.7269952E+00            0.7120458E+01
            0.5000000E+00            0.7938926E+00            0.6376678E+01
            0.5000000E+00            0.8535534E+00            0.5507022E+01
            0.5000000E+00            0.9045085E+00            0.4571203E+01
            0.5000000E+00            0.9455033E+00            0.3681487E+01
            0.5000000E+00            0.9755283E+00            0.2705866E+01
            0.5000000E+00            0.9938442E+00            0.1560787E+01
            0.5000000E+00            0.1000000E+01            0.1000000E+01
            0.5782172E+00            0.0000000E+00            0.1000000E+01
            0.5782172E+00            0.6155830E-02            0.1004951E+01
            0.5782172E+00            0.2447174E-01            0.1080379E+01
            0.5782172E+00            0.5449674E-01            0.1366034E+01
            0.5782172E+00            0.9549150E-01            0.1997729E+01
            0.5782172E+00            0.1464466E+00            0.2984625E+01
            0.5782172E+00            0.2061074E+00            0.4250881E+01
            0.5782172E+00            0.2730048E+00            0.5581104E+01
            0.5782172E+00            0.3454915E+00            0.6608134E+01
            0.5782172E+00            0.4217828E+00            0.7244666E+01
            0.5782172E+00            0.5000000E+00            0.7490119E+01
            0.5782172E+00            0.5782172E+00            0.7469825E+01
            0.5782172E+00            0.6545085E+00            0.7159751E+01
            0.5782172E+00            0.7269952E+00            0.6626659E+01
            0.5782172E+00            0.7938926E+00            0.5871646E+01
            0.5782172E+00            0.8535534E+00            0.5003990E+01
            0.5782172E+00            0.9045085E+00            0.4114856E+01
            0.5782172E+00            0.9455033E+00            0.3310650E+01
            0.5782172E+00            0.9755283E+00            0.2496125E+01
            0.5782172E+00            0.9938442E+00            0.1517857E+01
            0.5782172E+00            0.1000000E+01            0.1000000E+01
            0.6545085E+00            0.0000000E+00            0.1000000E+01
            0.6545085E+00            0.6155830E-02            0.1002929E+01
            0.6545085E+00            0.2447174E-01            0.1051433E+01
            0.6545085E+00            0.5449674E-01            0.1247501E+01
            0.6545085E+00            0.9549150E-01            0.1739941E+01
            0.6545085E+00            0.1464466E+00            0.2587440E+01
            0.6545085E+00            0.2061074E+00            0.3675319E+01
            0.6545085E+00            0.2730048E+00            0.4827541E+01
            0.6545085E+00            0.3454915E+00            0.5769798E+01
            0.6545085E+00            0.4217828E+00            0.6411570E+01
            0.6545085E+00            0.5000000E+00            0.6702093E+01
            0.6545085E+00            0.5782172E+00            0.6690897E+01
            0.6545085E+00            0.6545085E+00            0.6390306E+01
            0.6545085E+00            0.7269952E+00            0.5861222E+01
            0.6545085E+00            0.7938926E+00            0.5143783E+01
            0.6545085E+00            0.8535534E+00            0.4338997E+01
            0.6545085E+00            0.9045085E+00            0.3532961E+01
            0.6545085E+00            0.9455033E+00            0.2844142E+01
            0.6545085E+00            0.9755283E+00            0.2210793E+01
            0.6545085E+00            0.9938442E+00            0.1436214E+01
            0.6545085E+00            0.1000000E+01            0.1000000E+01
            0.7269952E+00            0.0000000E+00            0.1000000E+01
            0.7269952E+00            0.6155830E-02            0.1001291E+01
            0.7269952E+00            0.2447174E-01            0.1024040E+01
            0.7269952E+00            0.5449674E-01            0.1128752E+01
            0.7269952E+00            0.9549150E-01            0.1437465E+01
            0.7269952E+00            0.1464466E+00            0.2063079E+01
            0.7269952E+00            0.2061074E+00            0.2955872E+01
            0.7269952E+00            0.2730048E+00            0.3943400E+01
            0.7269952E+00            0.3454915E+00            0.4797243E+01
            0.7269952E+00            0.4217828E+00            0.5391105E+01
            0.7269952E+00            0.5000000E+00            0.5677519E+01
            0.7269952E+00            0.5782172E+00            0.5663767E+01
            0.7269952E+00            0.6545085E+00            0.5375177E+01
            0.7269952E+00            0.7269952E+00            0.4863299E+01
            0.7269952E+00            0.7938926E+00            0.4190642E+01
            0.7269952E+00            0.8535534E+00            0.3461574E+01
            0.7269952E+00            0.9045085E+00            0.2809751E+01
            0.7269952E+00            0.9455033E+00            0.2317389E+01
            0.7269952E+00            0.9755283E+00            0.1888383E+01
            0.7269952E+00            0.9938442E+00            0.1331330E+01
            0.7269952E+00            0.1000000E+01            0.1000000E+01
            0.7938926E+00            0.0000000E+00            0.1000000E+01
            0.7938926E+00            0.6155830E-02            0.1000269E+01
            0.7938926E+00            0.2447174E-01            0.1005603E+01
            0.7938926E+00            0.5449674E-01            0.1045721E+01
            0.7938926E+00            0.9549150E-01            0.1199240E+01
            0.7938926E+00            0.1464466E+00            0.1579723E+01
            0.7938926E+00            0.2061074E+00            0.2223483E+01
            0.7938926E+00            0.2730048E+00            0.3010309E+01
            0.7938926E+00            0.3454915E+00            0.3743654E+01
            0.7938926E+00            0.4217828E+00            0.4261014E+01
            0.7938926E+00            0.5000000E+00            0.4509758E+01
            0.7938926E+00            0.5782172E+00            0.4477837E+01
            0.7938926E+00            0.6545085E+00            0.4200256E+01
            0.7938926E+00            0.7269952E+00            0.3719442E+01
            0.7938926E+00            0.7938926E+00            0.3130881E+01
            0.7938926E+00            0.8535534E+00            0.2558264E+01
            0.7938926E+00            0.9045085E+00            0.2113199E+01
            0.7938926E+00            0.9455033E+00            0.1821622E+01
            0.7938926E+00            0.9755283E+00            0.1580003E+01
            0.7938926E+00            0.9938442E+00            0.1223464E+01
            0.7938926E+00            0.1000000E+01            0.1000000E+01
            0.8535534E+00            0.0000000E+00            0.1000000E+01
            0.8535534E+00            0.6155830E-02            0.9997279E+00
            0.8535534E+00            0.2447174E-01            0.9964388E+00
            0.8535534E+00            0.5449674E-01            0.1000180E+01
            0.8535534E+00            0.9549150E-01            0.1055224E+01
            0.8535534E+00            0.1464466E+00            0.1247367E+01
            0.8535534E+00            0.2061074E+00            0.1641618E+01
            0.8535534E+00            0.2730048E+00            0.2184221E+01
            0.8535534E+00            0.3454915E+00            0.2735788E+01
            0.8535534E+00            0.4217828E+00            0.3136468E+01
            0.8535534E+00            0.5000000E+00            0.3319199E+01
            0.8535534E+00            0.5782172E+00            0.3263196E+01
            0.8535534E+00            0.6545085E+00            0.3003115E+01
            0.8535534E+00            0.7269952E+00            0.2593892E+01
            0.8535534E+00            0.7938926E+00            0.2146162E+01
            0.8535534E+00            0.8535534E+00            0.1766108E+01
            0.8535534E+00            0.9045085E+00            0.1527003E+01
            0.8535534E+00            0.9455033E+00            0.1418538E+01
            0.8535534E+00            0.9755283E+00            0.1325399E+01
            0.8535534E+00            0.9938442E+00            0.1129898E+01
            0.8535534E+00            0.1000000E+01            0.1000000E+01
            0.9045085E+00            0.0000000E+00            0.1000000E+01
            0.9045085E+00            0.6155830E-02            0.9995824E+00
            0.9045085E+00            0.2447174E-01            0.9944168E+00
            0.9045085E+00            0.5449674E-01            0.9848567E+00
            0.9045085E+00            0.9549150E-01            0.9932734E+00
            0.9045085E+00            0.1464466E+00            0.1073122E+01
            0.9045085E+00            0.2061074E+00            0.1276505E+01
            0.9045085E+00            0.2730048E+00            0.1588358E+01
            0.9045085E+00            0.3454915E+00            0.1925606E+01
            0.9045085E+00            0.4217828E+00            0.2173157E+01
            0.9045085E+00            0.5000000E+00            0.2267376E+01
            0.9045085E+00            0.5782172E+00            0.2193329E+01
            0.9045085E+00            0.6545085E+00            0.1988113E+01
            0.9045085E+00            0.7269952E+00            0.1716677E+01
            0.9045085E+00            0.7938926E+00            0.1461463E+01
            0.9045085E+00            0.8535534E+00            0.1276906E+01
            0.9045085E+00            0.9045085E+00            0.1187700E+01
            0.9045085E+00            0.9455033E+00            0.1176714E+01
            0.9045085E+00            0.9755283E+00            0.1154722E+01
            0.9045085E+00            0.9938442E+00            0.1062445E+01
            0.9045085E+00            0.1000000E+01            0.1000000E+01
            0.9455033E+00            0.0000000E+00            0.1000000E+01
            0.9455033E+00            0.6155830E-02            0.9997574E+00
            0.9455033E+00            0.2447174E-01            0.9966388E+00
            0.9455033E+00            0.5449674E-01            0.9890012E+00
            0.9455033E+00            0.9549150E-01            0.9854055E+00
            0.9455033E+00            0.1464466E+00            0.1010342E+01
            0.9455033E+00            0.2061074E+00            0.1091455E+01
            0.9455033E+00            0.2730048E+00            0.1227433E+01
            0.9455033E+00            0.3454915E+00            0.1378116E+01
            0.9455033E+00            0.4217828E+00            0.1482812E+01
            0.9455033E+00            0.5000000E+00            0.1506832E+01
            0.9455033E+00            0.5782172E+00            0.1449836E+01
            0.9455033E+00            0.6545085E+00            0.1342998E+01
            0.9455033E+00            0.7269952E+00            0.1225726E+01
            0.9455033E+00            0.7938926E+00            0.1127650E+01
            0.9455033E+00            0.8535534E+00            0.1063220E+01
            0.9455033E+00            0.9045085E+00            0.1043870E+01
            0.9455033E+00            0.9455033E+00            0.1057928E+01
            0.9455033E+00            0.9755283E+00            0.1057398E+01
            0.9455033E+00            0.9938442E+00            0.1022727E+01
            0.9455033E+00            0.1000000E+01            0.1000000E+01
            0.9755283E+00            0.0000000E+00            0.1000000E+01
            0.9755283E+00            0.6155830E-02            0.9999518E+00
            0.9755283E+00            0.2447174E-01            0.9991269E+00
            0.9755283E+00            0.5449674E-01            0.9967138E+00
            0.9755283E+00            0.9549150E-01            0.9946481E+00
            0.9755283E+00            0.1464466E+00            0.9993040E+00
            0.9755283E+00            0.2061074E+00            0.1018673E+01
            0.9755283E+00            0.2730048E+00            0.1053332E+01
            0.9755283E+00            0.3454915E+00            0.1091701E+01
            0.9755283E+00            0.4217828E+00            0.1115925E+01
            0.9755283E+00            0.5000000E+00            0.1117078E+01
            0.9755283E+00            0.5782172E+00            0.1097629E+01
            0.9755283E+00            0.6545085E+00            0.1069163E+01
            0.9755283E+00            0.7269952E+00            0.1042062E+01