 VARIABLES =  $x$  $\sin x$  $x$2  $\cos x$  $x$3  $\sin 2x$
 ZONE I=         201 ,DATAPACKING=POINT
  0.000000000000000E+00  0.000000000000000E+00  0.000000000000000E+00  0.100000000000000E+01  0.000000000000000E+00  0.000000000000000E+00
  0.314159265358979E-01  0.314107590781283E-01  0.314159265358979E-01  0.999506560365732E+00  0.314159265358979E-01  0.627905195293134E-01
  0.628318530717959E-01  0.627905195293134E-01  0.628318530717959E-01  0.998026728428272E+00  0.628318530717959E-01  0.125333233564304E+00
  0.942477796076938E-01  0.941083133185143E-01  0.942477796076938E-01  0.995561964603080E+00  0.942477796076938E-01  0.187381314585725E+00
  0.125663706143592E+00  0.125333233564304E+00  0.125663706143592E+00  0.992114701314478E+00  0.125663706143592E+00  0.248689887164855E+00
  0.157079632679490E+00  0.156434465040231E+00  0.157079632679490E+00  0.987688340595138E+00  0.157079632679490E+00  0.309016994374947E+00
  0.188495559215388E+00  0.187381314585725E+00  0.188495559215388E+00  0.982287250728689E+00  0.188495559215388E+00  0.368124552684678E+00
  0.219911485751286E+00  0.218143241396543E+00  0.219911485751286E+00  0.975916761938748E+00  0.219911485751286E+00  0.425779291565073E+00
  0.251327412287183E+00  0.248689887164855E+00  0.251327412287183E+00  0.968583161128631E+00  0.251327412287183E+00  0.481753674101715E+00
  0.282743338823081E+00  0.278991106039229E+00  0.282743338823081E+00  0.960293685676943E+00  0.282743338823081E+00  0.535826794978997E+00
  0.314159265358979E+00  0.309016994374947E+00  0.314159265358979E+00  0.951056516295154E+00  0.314159265358979E+00  0.587785252292473E+00
  0.345575191894877E+00  0.338737920245291E+00  0.345575191894877E+00  0.940880768954225E+00  0.345575191894877E+00  0.637423989748690E+00
  0.376991118430775E+00  0.368124552684678E+00  0.376991118430775E+00  0.929776485888251E+00  0.376991118430775E+00  0.684547105928689E+00
  0.408407044966673E+00  0.397147890634781E+00  0.408407044966673E+00  0.917754625683981E+00  0.408407044966673E+00  0.728968627421412E+00
  0.439822971502571E+00  0.425779291565073E+00  0.439822971502571E+00  0.904827052466019E+00  0.439822971502571E+00  0.770513242775789E+00
  0.471238898038469E+00  0.453990499739547E+00  0.471238898038469E+00  0.891006524188368E+00  0.471238898038469E+00  0.809016994374947E+00
  0.502654824574367E+00  0.481753674101715E+00  0.502654824574367E+00  0.876306680043863E+00  0.502654824574367E+00  0.844327925502015E+00
  0.534070751110265E+00  0.509041415750371E+00  0.534070751110265E+00  0.860742027003944E+00  0.534070751110265E+00  0.876306680043864E+00
  0.565486677646163E+00  0.535826794978997E+00  0.565486677646163E+00  0.844327925502015E+00  0.565486677646163E+00  0.904827052466019E+00
  0.596902604182061E+00  0.562083377852130E+00  0.596902604182061E+00  0.827080574274562E+00  0.596902604182061E+00  0.929776485888251E+00
  0.628318530717959E+00  0.587785252292473E+00  0.628318530717959E+00  0.809016994374948E+00  0.628318530717959E+00  0.951056516295154E+00
  0.659734457253857E+00  0.612907053652976E+00  0.659734457253857E+00  0.790155012375691E+00  0.659734457253857E+00  0.968583161128631E+00
  0.691150383789754E+00  0.637423989748690E+00  0.691150383789754E+00  0.770513242775789E+00  0.691150383789754E+00  0.982287250728689E+00
  0.722566310325652E+00  0.661311865323652E+00  0.722566310325652E+00  0.750111069630460E+00  0.722566310325652E+00  0.992114701314478E+00
  0.753982236861550E+00  0.684547105928689E+00  0.753982236861550E+00  0.728968627421412E+00  0.753982236861550E+00  0.998026728428272E+00
  0.785398163397448E+00  0.707106781186548E+00  0.785398163397448E+00  0.707106781186548E+00  0.785398163397448E+00  0.100000000000000E+01
  0.816814089933346E+00  0.728968627421412E+00  0.816814089933346E+00  0.684547105928689E+00  0.816814089933346E+00  0.998026728428272E+00
  0.848230016469244E+00  0.750111069630460E+00  0.848230016469244E+00  0.661311865323652E+00  0.848230016469244E+00  0.992114701314478E+00
  0.879645943005142E+00  0.770513242775789E+00  0.879645943005142E+00  0.637423989748690E+00  0.879645943005142E+00  0.982287250728689E+00
  0.911061869541040E+00  0.790155012375691E+00  0.911061869541040E+00  0.612907053652976E+00  0.911061869541040E+00  0.968583161128631E+00
  0.942477796076938E+00  0.809016994374947E+00  0.942477796076938E+00  0.587785252292473E+00  0.942477796076938E+00  0.951056516295154E+00
  0.973893722612836E+00  0.827080574274562E+00  0.973893722612836E+00  0.562083377852131E+00  0.973893722612836E+00  0.929776485888251E+00
  0.100530964914873E+01  0.844327925502015E+00  0.100530964914873E+01  0.535826794978997E+00  0.100530964914873E+01  0.904827052466019E+00
  0.103672557568463E+01  0.860742027003944E+00  0.103672557568463E+01  0.509041415750371E+00  0.103672557568463E+01  0.876306680043863E+00
  0.106814150222053E+01  0.876306680043864E+00  0.106814150222053E+01  0.481753674101715E+00  0.106814150222053E+01  0.844327925502015E+00
  0.109955742875643E+01  0.891006524188368E+00  0.109955742875643E+01  0.453990499739547E+00  0.109955742875643E+01  0.809016994374948E+00
  0.113097335529233E+01  0.904827052466019E+00  0.113097335529233E+01  0.425779291565073E+00  0.113097335529233E+01  0.770513242775789E+00
  0.116238928182822E+01  0.917754625683981E+00  0.116238928182822E+01  0.397147890634781E+00  0.116238928182822E+01  0.728968627421412E+00
  0.119380520836412E+01  0.929776485888251E+00  0.119380520836412E+01  0.368124552684678E+00  0.119380520836412E+01  0.684547105928689E+00
  0.122522113490002E+01  0.940880768954225E+00  0.122522113490002E+01  0.338737920245291E+00  0.122522113490002E+01  0.637423989748690E+00
  0.125663706143592E+01  0.951056516295154E+00  0.125663706143592E+01  0.309016994374948E+00  0.125663706143592E+01  0.587785252292473E+00
  0.128805298797181E+01  0.960293685676943E+00  0.128805298797181E+01  0.278991106039229E+00  0.128805298797181E+01  0.535826794978997E+00
  0.131946891450771E+01  0.968583161128631E+00  0.131946891450771E+01  0.248689887164855E+00  0.131946891450771E+01  0.481753674101715E+00
  0.135088484104361E+01  0.975916761938748E+00  0.135088484104361E+01  0.218143241396543E+00  0.135088484104361E+01  0.425779291565073E+00
  0.138230076757951E+01  0.982287250728689E+00  0.138230076757951E+01  0.187381314585725E+00  0.138230076757951E+01  0.368124552684678E+00
  0.141371669411541E+01  0.987688340595138E+00  0.141371669411541E+01  0.156434465040231E+00  0.141371669411541E+01  0.309016994374948E+00
  0.144513262065130E+01  0.992114701314478E+00  0.144513262065130E+01  0.125333233564304E+00  0.144513262065130E+01  0.248689887164855E+00
  0.147654854718720E+01  0.995561964603080E+00  0.147654854718720E+01  0.941083133185143E-01  0.147654854718720E+01  0.187381314585725E+00
  0.150796447372310E+01  0.998026728428272E+00  0.150796447372310E+01  0.627905195293135E-01  0.150796447372310E+01  0.125333233564305E+00
  0.153938040025900E+01  0.999506560365732E+00  0.153938040025900E+01  0.314107590781284E-01  0.153938040025900E+01  0.627905195293136E-01
  0.157079632679490E+01  0.100000000000000E+01  0.157079632679490E+01  0.612323399573677E-16  0.157079632679490E+01  0.122464679914735E-15
  0.160221225333079E+01  0.999506560365732E+00  0.160221225333079E+01 -0.314107590781283E-01  0.160221225333079E+01 -0.627905195293133E-01
  0.163362817986669E+01  0.998026728428272E+00  0.163362817986669E+01 -0.627905195293134E-01  0.163362817986669E+01 -0.125333233564304E+00
  0.166504410640259E+01  0.995561964603080E+00  0.166504410640259E+01 -0.941083133185144E-01  0.166504410640259E+01 -0.187381314585725E+00
  0.169646003293849E+01  0.992114701314478E+00  0.169646003293849E+01 -0.125333233564304E+00  0.169646003293849E+01 -0.248689887164855E+00
  0.172787595947439E+01  0.987688340595138E+00  0.172787595947439E+01 -0.156434465040231E+00  0.172787595947439E+01 -0.309016994374947E+00
  0.175929188601028E+01  0.982287250728689E+00  0.175929188601028E+01 -0.187381314585725E+00  0.175929188601028E+01 -0.368124552684678E+00
  0.179070781254618E+01  0.975916761938748E+00  0.179070781254618E+01 -0.218143241396542E+00  0.179070781254618E+01 -0.425779291565072E+00
  0.182212373908208E+01  0.968583161128631E+00  0.182212373908208E+01 -0.248689887164855E+00  0.182212373908208E+01 -0.481753674101715E+00
  0.185353966561798E+01  0.960293685676943E+00  0.185353966561798E+01 -0.278991106039229E+00  0.185353966561798E+01 -0.535826794978996E+00
  0.188495559215388E+01  0.951056516295154E+00  0.188495559215388E+01 -0.309016994374947E+00  0.188495559215388E+01 -0.587785252292473E+00
  0.191637151868977E+01  0.940880768954226E+00  0.191637151868977E+01 -0.338737920245291E+00  0.191637151868977E+01 -0.637423989748690E+00
  0.194778744522567E+01  0.929776485888251E+00  0.194778744522567E+01 -0.368124552684678E+00  0.194778744522567E+01 -0.684547105928688E+00
  0.197920337176157E+01  0.917754625683981E+00  0.197920337176157E+01 -0.397147890634781E+00  0.197920337176157E+01 -0.728968627421412E+00
  0.201061929829747E+01  0.904827052466019E+00  0.201061929829747E+01 -0.425779291565073E+00  0.201061929829747E+01 -0.770513242775789E+00
  0.204203522483337E+01  0.891006524188368E+00  0.204203522483337E+01 -0.453990499739547E+00  0.204203522483337E+01 -0.809016994374947E+00
  0.207345115136926E+01  0.876306680043863E+00  0.207345115136926E+01 -0.481753674101715E+00  0.207345115136926E+01 -0.844327925502015E+00
  0.210486707790516E+01  0.860742027003944E+00  0.210486707790516E+01 -0.509041415750371E+00  0.210486707790516E+01 -0.876306680043863E+00
  0.213628300444106E+01  0.844327925502015E+00  0.213628300444106E+01 -0.535826794978997E+00  0.213628300444106E+01 -0.904827052466020E+00
  0.216769893097696E+01  0.827080574274562E+00  0.216769893097696E+01 -0.562083377852131E+00  0.216769893097696E+01 -0.929776485888251E+00
  0.219911485751286E+01  0.809016994374948E+00  0.219911485751286E+01 -0.587785252292473E+00  0.219911485751286E+01 -0.951056516295154E+00
  0.223053078404875E+01  0.790155012375690E+00  0.223053078404875E+01 -0.612907053652976E+00  0.223053078404875E+01 -0.968583161128631E+00
  0.226194671058465E+01  0.770513242775789E+00  0.226194671058465E+01 -0.637423989748690E+00  0.226194671058465E+01 -0.982287250728689E+00
  0.229336263712055E+01  0.750111069630460E+00  0.229336263712055E+01 -0.661311865323652E+00  0.229336263712055E+01 -0.992114701314478E+00
  0.232477856365645E+01  0.728968627421412E+00  0.232477856365645E+01 -0.684547105928689E+00  0.232477856365645E+01 -0.998026728428272E+00
  0.235619449019234E+01  0.707106781186548E+00  0.235619449019234E+01 -0.707106781186547E+00  0.235619449019234E+01 -0.100000000000000E+01
  0.238761041672824E+01  0.684547105928689E+00  0.238761041672824E+01 -0.728968627421411E+00  0.238761041672824E+01 -0.998026728428272E+00
  0.241902634326414E+01  0.661311865323652E+00  0.241902634326414E+01 -0.750111069630460E+00  0.241902634326414E+01 -0.992114701314478E+00
  0.245044226980004E+01  0.637423989748690E+00  0.245044226980004E+01 -0.770513242775789E+00  0.245044226980004E+01 -0.982287250728689E+00
  0.248185819633594E+01  0.612907053652976E+00  0.248185819633594E+01 -0.790155012375691E+00  0.248185819633594E+01 -0.968583161128631E+00
  0.251327412287183E+01  0.587785252292473E+00  0.251327412287183E+01 -0.809016994374947E+00  0.251327412287183E+01 -0.951056516295154E+00
  0.254469004940773E+01  0.562083377852131E+00  0.254469004940773E+01 -0.827080574274562E+00  0.254469004940773E+01 -0.929776485888252E+00
  0.257610597594363E+01  0.535826794978997E+00  0.257610597594363E+01 -0.844327925502015E+00  0.257610597594363E+01 -0.904827052466020E+00
  0.260752190247953E+01  0.509041415750371E+00  0.260752190247953E+01 -0.860742027003944E+00  0.260752190247953E+01 -0.876306680043863E+00
  0.263893782901543E+01  0.481753674101715E+00  0.263893782901543E+01 -0.876306680043864E+00  0.263893782901543E+01 -0.844327925502015E+00
  0.267035375555132E+01  0.453990499739547E+00  0.267035375555132E+01 -0.891006524188368E+00  0.267035375555132E+01 -0.809016994374948E+00
  0.270176968208722E+01  0.425779291565073E+00  0.270176968208722E+01 -0.904827052466019E+00  0.270176968208722E+01 -0.770513242775790E+00
  0.273318560862312E+01  0.397147890634781E+00  0.273318560862312E+01 -0.917754625683981E+00  0.273318560862312E+01 -0.728968627421412E+00
  0.276460153515902E+01  0.368124552684678E+00  0.276460153515902E+01 -0.929776485888251E+00  0.276460153515902E+01 -0.684547105928689E+00
  0.279601746169492E+01  0.338737920245291E+00  0.279601746169492E+01 -0.940880768954226E+00  0.279601746169492E+01 -0.637423989748690E+00
  0.282743338823081E+01  0.309016994374948E+00  0.282743338823081E+01 -0.951056516295154E+00  0.282743338823081E+01 -0.587785252292473E+00
  0.285884931476671E+01  0.278991106039230E+00  0.285884931476671E+01 -0.960293685676943E+00  0.285884931476671E+01 -0.535826794978997E+00
  0.289026524130261E+01  0.248689887164855E+00  0.289026524130261E+01 -0.968583161128631E+00  0.289026524130261E+01 -0.481753674101716E+00
  0.292168116783851E+01  0.218143241396543E+00  0.292168116783851E+01 -0.975916761938748E+00  0.292168116783851E+01 -0.425779291565073E+00
  0.295309709437441E+01  0.187381314585725E+00  0.295309709437441E+01 -0.982287250728689E+00  0.295309709437441E+01 -0.368124552684678E+00
  0.298451302091030E+01  0.156434465040231E+00  0.298451302091030E+01 -0.987688340595138E+00  0.298451302091030E+01 -0.309016994374948E+00
  0.301592894744620E+01  0.125333233564305E+00  0.301592894744620E+01 -0.992114701314478E+00  0.301592894744620E+01 -0.248689887164855E+00
  0.304734487398210E+01  0.941083133185144E-01  0.304734487398210E+01 -0.995561964603080E+00  0.304734487398210E+01 -0.187381314585725E+00
  0.307876080051800E+01  0.627905195293136E-01  0.307876080051800E+01 -0.998026728428272E+00  0.307876080051800E+01 -0.125333233564305E+00
  0.311017672705390E+01  0.314107590781282E-01  0.311017672705390E+01 -0.999506560365732E+00  0.311017672705390E+01 -0.627905195293133E-01
  0.314159265358979E+01  0.122464679914735E-15  0.314159265358979E+01 -0.100000000000000E+01  0.314159265358979E+01 -0.244929359829471E-15
  0.317300858012569E+01 -0.314107590781280E-01  0.317300858012569E+01 -0.999506560365732E+00  0.317300858012569E+01  0.627905195293128E-01
  0.320442450666159E+01 -0.627905195293133E-01  0.320442450666159E+01 -0.998026728428272E+00  0.320442450666159E+01  0.125333233564304E+00
  0.323584043319749E+01 -0.941083133185141E-01  0.323584043319749E+01 -0.995561964603080E+00  0.323584043319749E+01  0.187381314585724E+00
  0.326725635973339E+01 -0.125333233564304E+00  0.326725635973339E+01 -0.992114701314478E+00  0.326725635973339E+01  0.248689887164855E+00
  0.329867228626928E+01 -0.156434465040231E+00  0.329867228626928E+01 -0.987688340595138E+00  0.329867228626928E+01  0.309016994374947E+00
  0.333008821280518E+01 -0.187381314585725E+00  0.333008821280518E+01 -0.982287250728689E+00  0.333008821280518E+01  0.368124552684678E+00
  0.336150413934108E+01 -0.218143241396543E+00  0.336150413934108E+01 -0.975916761938748E+00  0.336150413934108E+01  0.425779291565073E+00
  0.339292006587698E+01 -0.248689887164855E+00  0.339292006587698E+01 -0.968583161128631E+00  0.339292006587698E+01  0.481753674101715E+00
  0.342433599241287E+01 -0.278991106039229E+00  0.342433599241287E+01 -0.960293685676943E+00  0.342433599241287E+01  0.535826794978996E+00
  0.345575191894877E+01 -0.309016994374947E+00  0.345575191894877E+01 -0.951056516295154E+00  0.345575191894877E+01  0.587785252292473E+00
  0.348716784548467E+01 -0.338737920245292E+00  0.348716784548467E+01 -0.940880768954225E+00  0.348716784548467E+01  0.637423989748690E+00
  0.351858377202057E+01 -0.368124552684678E+00  0.351858377202057E+01 -0.929776485888251E+00  0.351858377202057E+01  0.684547105928689E+00
  0.354999969855647E+01 -0.397147890634780E+00  0.354999969855647E+01 -0.917754625683981E+00  0.354999969855647E+01  0.728968627421411E+00
  0.358141562509236E+01 -0.425779291565072E+00  0.358141562509236E+01 -0.904827052466020E+00  0.358141562509236E+01  0.770513242775789E+00
  0.361283155162826E+01 -0.453990499739547E+00  0.361283155162826E+01 -0.891006524188368E+00  0.361283155162826E+01  0.809016994374948E+00
  0.364424747816416E+01 -0.481753674101715E+00  0.364424747816416E+01 -0.876306680043863E+00  0.364424747816416E+01  0.844327925502015E+00
  0.367566340470006E+01 -0.509041415750371E+00  0.367566340470006E+01 -0.860742027003944E+00  0.367566340470006E+01  0.876306680043863E+00
  0.370707933123596E+01 -0.535826794978996E+00  0.370707933123596E+01 -0.844327925502015E+00  0.370707933123596E+01  0.904827052466019E+00
  0.373849525777185E+01 -0.562083377852130E+00  0.373849525777185E+01 -0.827080574274562E+00  0.373849525777185E+01  0.929776485888251E+00
  0.376991118430775E+01 -0.587785252292473E+00  0.376991118430775E+01 -0.809016994374948E+00  0.376991118430775E+01  0.951056516295153E+00
  0.380132711084365E+01 -0.612907053652976E+00  0.380132711084365E+01 -0.790155012375690E+00  0.380132711084365E+01  0.968583161128631E+00
  0.383274303737955E+01 -0.637423989748690E+00  0.383274303737955E+01 -0.770513242775789E+00  0.383274303737955E+01  0.982287250728689E+00
  0.386415896391545E+01 -0.661311865323652E+00  0.386415896391545E+01 -0.750111069630460E+00  0.386415896391545E+01  0.992114701314478E+00
  0.389557489045134E+01 -0.684547105928688E+00  0.389557489045134E+01 -0.728968627421412E+00  0.389557489045134E+01  0.998026728428272E+00
  0.392699081698724E+01 -0.707106781186547E+00  0.392699081698724E+01 -0.707106781186548E+00  0.392699081698724E+01  0.100000000000000E+01
  0.395840674352314E+01 -0.728968627421412E+00  0.395840674352314E+01 -0.684547105928689E+00  0.395840674352314E+01  0.998026728428272E+00
  0.398982267005904E+01 -0.750111069630460E+00  0.398982267005904E+01 -0.661311865323652E+00  0.398982267005904E+01  0.992114701314478E+00
  0.402123859659494E+01 -0.770513242775789E+00  0.402123859659494E+01 -0.637423989748690E+00  0.402123859659494E+01  0.982287250728689E+00
  0.405265452313083E+01 -0.790155012375691E+00  0.405265452313083E+01 -0.612907053652976E+00  0.405265452313083E+01  0.968583161128631E+00
  0.408407044966673E+01 -0.809016994374947E+00  0.408407044966673E+01 -0.587785252292473E+00  0.408407044966673E+01  0.951056516295154E+00
  0.411548637620263E+01 -0.827080574274562E+00  0.411548637620263E+01 -0.562083377852131E+00  0.411548637620263E+01  0.929776485888252E+00
  0.414690230273853E+01 -0.844327925502015E+00  0.414690230273853E+01 -0.535826794978996E+00  0.414690230273853E+01  0.904827052466019E+00
  0.417831822927443E+01 -0.860742027003944E+00  0.417831822927443E+01 -0.509041415750371E+00  0.417831822927443E+01  0.876306680043863E+00
  0.420973415581032E+01 -0.876306680043863E+00  0.420973415581032E+01 -0.481753674101715E+00  0.420973415581032E+01  0.844327925502015E+00
  0.424115008234622E+01 -0.891006524188368E+00  0.424115008234622E+01 -0.453990499739547E+00  0.424115008234622E+01  0.809016994374948E+00
  0.427256600888212E+01 -0.904827052466020E+00  0.427256600888212E+01 -0.425779291565072E+00  0.427256600888212E+01  0.770513242775789E+00
  0.430398193541802E+01 -0.917754625683981E+00  0.430398193541802E+01 -0.397147890634780E+00  0.430398193541802E+01  0.728968627421411E+00
  0.433539786195391E+01 -0.929776485888251E+00  0.433539786195391E+01 -0.368124552684678E+00  0.433539786195391E+01  0.684547105928688E+00
  0.436681378848981E+01 -0.940880768954225E+00  0.436681378848981E+01 -0.338737920245291E+00  0.436681378848981E+01  0.637423989748690E+00
  0.439822971502571E+01 -0.951056516295154E+00  0.439822971502571E+01 -0.309016994374948E+00  0.439822971502571E+01  0.587785252292473E+00
  0.442964564156161E+01 -0.960293685676943E+00  0.442964564156161E+01 -0.278991106039230E+00  0.442964564156161E+01  0.535826794978997E+00
  0.446106156809751E+01 -0.968583161128631E+00  0.446106156809751E+01 -0.248689887164854E+00  0.446106156809751E+01  0.481753674101715E+00
  0.449247749463340E+01 -0.975916761938748E+00  0.449247749463340E+01 -0.218143241396542E+00  0.449247749463340E+01  0.425779291565072E+00
  0.452389342116930E+01 -0.982287250728689E+00  0.452389342116930E+01 -0.187381314585725E+00  0.452389342116930E+01  0.368124552684678E+00
  0.455530934770520E+01 -0.987688340595138E+00  0.455530934770520E+01 -0.156434465040231E+00  0.455530934770520E+01  0.309016994374948E+00
  0.458672527424110E+01 -0.992114701314478E+00  0.458672527424110E+01 -0.125333233564305E+00  0.458672527424110E+01  0.248689887164856E+00
  0.461814120077700E+01 -0.995561964603080E+00  0.461814120077700E+01 -0.941083133185140E-01  0.461814120077700E+01  0.187381314585724E+00
  0.464955712731289E+01 -0.998026728428272E+00  0.464955712731289E+01 -0.627905195293132E-01  0.464955712731289E+01  0.125333233564304E+00
  0.468097305384879E+01 -0.999506560365732E+00  0.468097305384879E+01 -0.314107590781283E-01  0.468097305384879E+01  0.627905195293134E-01
  0.471238898038469E+01 -0.100000000000000E+01  0.471238898038469E+01 -0.183697019872103E-15  0.471238898038469E+01  0.367394039744206E-15
  0.474380490692059E+01 -0.999506560365732E+00  0.474380490692059E+01  0.314107590781279E-01  0.474380490692059E+01 -0.627905195293127E-01
  0.477522083345649E+01 -0.998026728428272E+00  0.477522083345649E+01  0.627905195293128E-01  0.477522083345649E+01 -0.125333233564303E+00
  0.480663675999238E+01 -0.995561964603080E+00  0.480663675999238E+01  0.941083133185145E-01  0.480663675999238E+01 -0.187381314585725E+00
  0.483805268652828E+01 -0.992114701314478E+00  0.483805268652828E+01  0.125333233564304E+00  0.483805268652828E+01 -0.248689887164855E+00
  0.486946861306418E+01 -0.987688340595138E+00  0.486946861306418E+01  0.156434465040231E+00  0.486946861306418E+01 -0.309016994374947E+00
  0.490088453960008E+01 -0.982287250728689E+00  0.490088453960008E+01  0.187381314585724E+00  0.490088453960008E+01 -0.368124552684677E+00
  0.493230046613597E+01 -0.975916761938748E+00  0.493230046613597E+01  0.218143241396542E+00  0.493230046613597E+01 -0.425779291565072E+00
  0.496371639267187E+01 -0.968583161128631E+00  0.496371639267187E+01  0.248689887164855E+00  0.496371639267187E+01 -0.481753674101716E+00
  0.499513231920777E+01 -0.960293685676943E+00  0.499513231920777E+01  0.278991106039229E+00  0.499513231920777E+01 -0.535826794978997E+00
  0.502654824574367E+01 -0.951056516295154E+00  0.502654824574367E+01  0.309016994374947E+00  0.502654824574367E+01 -0.587785252292473E+00
  0.505796417227957E+01 -0.940880768954226E+00  0.505796417227957E+01  0.338737920245291E+00  0.505796417227957E+01 -0.637423989748689E+00
  0.508938009881546E+01 -0.929776485888252E+00  0.508938009881546E+01  0.368124552684677E+00  0.508938009881546E+01 -0.684547105928688E+00
  0.512079602535136E+01 -0.917754625683981E+00  0.512079602535136E+01  0.397147890634780E+00  0.512079602535136E+01 -0.728968627421411E+00
  0.515221195188726E+01 -0.904827052466020E+00  0.515221195188726E+01  0.425779291565072E+00  0.515221195188726E+01 -0.770513242775788E+00
  0.518362787842316E+01 -0.891006524188368E+00  0.518362787842316E+01  0.453990499739546E+00  0.518362787842316E+01 -0.809016994374946E+00
  0.521504380495906E+01 -0.876306680043863E+00  0.521504380495906E+01  0.481753674101716E+00  0.521504380495906E+01 -0.844327925502016E+00
  0.524645973149496E+01 -0.860742027003943E+00  0.524645973149496E+01  0.509041415750372E+00  0.524645973149496E+01 -0.876306680043864E+00
  0.527787565803085E+01 -0.844327925502015E+00  0.527787565803085E+01  0.535826794978997E+00  0.527787565803085E+01 -0.904827052466019E+00
  0.530929158456675E+01 -0.827080574274562E+00  0.530929158456675E+01  0.562083377852130E+00  0.530929158456675E+01 -0.929776485888251E+00
  0.534070751110265E+01 -0.809016994374948E+00  0.534070751110265E+01  0.587785252292473E+00  0.534070751110265E+01 -0.951056516295154E+00
  0.537212343763855E+01 -0.790155012375691E+00  0.537212343763855E+01  0.612907053652976E+00  0.537212343763855E+01 -0.968583161128631E+00
  0.540353936417444E+01 -0.770513242775790E+00  0.540353936417444E+01  0.637423989748689E+00  0.540353936417444E+01 -0.982287250728688E+00
  0.543495529071034E+01 -0.750111069630460E+00  0.543495529071034E+01  0.661311865323651E+00  0.543495529071034E+01 -0.992114701314478E+00
  0.546637121724624E+01 -0.728968627421412E+00  0.546637121724624E+01  0.684547105928688E+00  0.546637121724624E+01 -0.998026728428271E+00
  0.549778714378214E+01 -0.707106781186548E+00  0.549778714378214E+01  0.707106781186547E+00  0.549778714378214E+01 -0.100000000000000E+01
  0.552920307031804E+01 -0.684547105928689E+00  0.552920307031804E+01  0.728968627421411E+00  0.552920307031804E+01 -0.998026728428272E+00
  0.556061899685393E+01 -0.661311865323652E+00  0.556061899685393E+01  0.750111069630460E+00  0.556061899685393E+01 -0.992114701314478E+00
  0.559203492338983E+01 -0.637423989748690E+00  0.559203492338983E+01  0.770513242775789E+00  0.559203492338983E+01 -0.982287250728689E+00
  0.562345084992573E+01 -0.612907053652976E+00  0.562345084992573E+01  0.790155012375690E+00  0.562345084992573E+01 -0.968583161128631E+00
  0.565486677646163E+01 -0.587785252292473E+00  0.565486677646163E+01  0.809016994374947E+00  0.565486677646163E+01 -0.951056516295154E+00
  0.568628270299753E+01 -0.562083377852131E+00  0.568628270299753E+01  0.827080574274562E+00  0.568628270299753E+01 -0.929776485888252E+00
  0.571769862953342E+01 -0.535826794978997E+00  0.571769862953342E+01  0.844327925502015E+00  0.571769862953342E+01 -0.904827052466020E+00
  0.574911455606932E+01 -0.509041415750372E+00  0.574911455606932E+01  0.860742027003943E+00  0.574911455606932E+01 -0.876306680043864E+00
  0.578053048260522E+01 -0.481753674101716E+00  0.578053048260522E+01  0.876306680043863E+00  0.578053048260522E+01 -0.844327925502016E+00
  0.581194640914112E+01 -0.453990499739547E+00  0.581194640914112E+01  0.891006524188368E+00  0.581194640914112E+01 -0.809016994374948E+00
  0.584336233567702E+01 -0.425779291565073E+00  0.584336233567702E+01  0.904827052466019E+00  0.584336233567702E+01 -0.770513242775790E+00
  0.587477826221291E+01 -0.397147890634780E+00  0.587477826221291E+01  0.917754625683981E+00  0.587477826221291E+01 -0.728968627421411E+00
  0.590619418874881E+01 -0.368124552684678E+00  0.590619418874881E+01  0.929776485888251E+00  0.590619418874881E+01 -0.684547105928689E+00
  0.593761011528471E+01 -0.338737920245291E+00  0.593761011528471E+01  0.940880768954225E+00  0.593761011528471E+01 -0.637423989748690E+00
  0.596902604182061E+01 -0.309016994374948E+00  0.596902604182061E+01  0.951056516295154E+00  0.596902604182061E+01 -0.587785252292473E+00
  0.600044196835650E+01 -0.278991106039230E+00  0.600044196835650E+01  0.960293685676943E+00  0.600044196835650E+01 -0.535826794978997E+00
  0.603185789489240E+01 -0.248689887164855E+00  0.603185789489240E+01  0.968583161128631E+00  0.603185789489240E+01 -0.481753674101716E+00
  0.606327382142830E+01 -0.218143241396543E+00  0.606327382142830E+01  0.975916761938747E+00  0.606327382142830E+01 -0.425779291565074E+00
  0.609468974796420E+01 -0.187381314585725E+00  0.609468974796420E+01  0.982287250728689E+00  0.609468974796420E+01 -0.368124552684678E+00
  0.612610567450010E+01 -0.156434465040231E+00  0.612610567450010E+01  0.987688340595138E+00  0.612610567450010E+01 -0.309016994374948E+00
  0.615752160103599E+01 -0.125333233564305E+00  0.615752160103599E+01  0.992114701314478E+00  0.615752160103599E+01 -0.248689887164856E+00
  0.618893752757189E+01 -0.941083133185149E-01  0.618893752757189E+01  0.995561964603080E+00  0.618893752757189E+01 -0.187381314585726E+00
  0.622035345410779E+01 -0.627905195293133E-01  0.622035345410779E+01  0.998026728428272E+00  0.622035345410779E+01 -0.125333233564304E+00
  0.625176938064369E+01 -0.314107590781284E-01  0.625176938064369E+01  0.999506560365732E+00  0.625176938064369E+01 -0.627905195293135E-01
  0.628318530717959E+01 -0.244929359829471E-15  0.628318530717959E+01  0.100000000000000E+01  0.628318530717959E+01 -0.489858719658941E-15
