 VARIABLES =  x  (b)
 ZONE I=         441 ,DATAPACKING=POINT
  0.000000000000000E+00  0.000000000000000E+00  0.000000000000000E+00
  0.000000000000000E+00  0.314159265358979E+00  0.000000000000000E+00
  0.000000000000000E+00  0.628318530717959E+00  0.000000000000000E+00
  0.000000000000000E+00  0.942477796076938E+00  0.000000000000000E+00
  0.000000000000000E+00  0.125663706143592E+01  0.000000000000000E+00
  0.000000000000000E+00  0.157079632679490E+01  0.000000000000000E+00
  0.000000000000000E+00  0.188495559215388E+01  0.000000000000000E+00
  0.000000000000000E+00  0.219911485751286E+01  0.000000000000000E+00
  0.000000000000000E+00  0.251327412287183E+01  0.000000000000000E+00
  0.000000000000000E+00  0.282743338823081E+01  0.000000000000000E+00
  0.000000000000000E+00  0.314159265358979E+01  0.000000000000000E+00
  0.000000000000000E+00  0.345575191894877E+01  0.000000000000000E+00
  0.000000000000000E+00  0.376991118430775E+01  0.000000000000000E+00
  0.000000000000000E+00  0.408407044966673E+01  0.000000000000000E+00
  0.000000000000000E+00  0.439822971502571E+01  0.000000000000000E+00
  0.000000000000000E+00  0.471238898038469E+01  0.000000000000000E+00
  0.000000000000000E+00  0.502654824574367E+01  0.000000000000000E+00
  0.000000000000000E+00  0.534070751110265E+01  0.000000000000000E+00
  0.000000000000000E+00  0.565486677646163E+01  0.000000000000000E+00
  0.000000000000000E+00  0.596902604182061E+01  0.000000000000000E+00
  0.000000000000000E+00  0.628318530717959E+01  0.000000000000000E+00
  0.314159265358979E+00  0.000000000000000E+00  0.000000000000000E+00
  0.314159265358979E+00  0.314159265358979E+00  0.954915028125263E-01
  0.314159265358979E+00  0.628318530717959E+00  0.181635632001340E+00
  0.314159265358979E+00  0.942477796076938E+00  0.250000000000000E+00
  0.314159265358979E+00  0.125663706143592E+01  0.293892626146237E+00
  0.314159265358979E+00  0.157079632679490E+01  0.309016994374947E+00
  0.314159265358979E+00  0.188495559215388E+01  0.293892626146237E+00
  0.314159265358979E+00  0.219911485751286E+01  0.250000000000000E+00
  0.314159265358979E+00  0.251327412287183E+01  0.181635632001340E+00
  0.314159265358979E+00  0.282743338823081E+01  0.954915028125263E-01
  0.314159265358979E+00  0.314159265358979E+01  0.378436673043415E-16
  0.314159265358979E+00  0.345575191894877E+01 -0.954915028125261E-01
  0.314159265358979E+00  0.376991118430775E+01 -0.181635632001340E+00
  0.314159265358979E+00  0.408407044966673E+01 -0.250000000000000E+00
  0.314159265358979E+00  0.439822971502571E+01 -0.293892626146237E+00
  0.314159265358979E+00  0.471238898038469E+01 -0.309016994374947E+00
  0.314159265358979E+00  0.502654824574367E+01 -0.293892626146237E+00
  0.314159265358979E+00  0.534070751110265E+01 -0.250000000000000E+00
  0.314159265358979E+00  0.565486677646163E+01 -0.181635632001340E+00
  0.314159265358979E+00  0.596902604182061E+01 -0.954915028125264E-01
  0.314159265358979E+00  0.628318530717959E+01 -0.756873346086830E-16
  0.628318530717959E+00  0.000000000000000E+00  0.000000000000000E+00
  0.628318530717959E+00  0.314159265358979E+00  0.181635632001340E+00
  0.628318530717959E+00  0.628318530717959E+00  0.345491502812526E+00
  0.628318530717959E+00  0.942477796076938E+00  0.475528258147577E+00
  0.628318530717959E+00  0.125663706143592E+01  0.559016994374947E+00
  0.628318530717959E+00  0.157079632679490E+01  0.587785252292473E+00
  0.628318530717959E+00  0.188495559215388E+01  0.559016994374947E+00
  0.628318530717959E+00  0.219911485751286E+01  0.475528258147577E+00
  0.628318530717959E+00  0.251327412287183E+01  0.345491502812526E+00
  0.628318530717959E+00  0.282743338823081E+01  0.181635632001340E+00
  0.628318530717959E+00  0.314159265358979E+01  0.719829327805997E-16
  0.628318530717959E+00  0.345575191894877E+01 -0.181635632001340E+00
  0.628318530717959E+00  0.376991118430775E+01 -0.345491502812526E+00
  0.628318530717959E+00  0.408407044966673E+01 -0.475528258147577E+00
  0.628318530717959E+00  0.439822971502571E+01 -0.559016994374947E+00
  0.628318530717959E+00  0.471238898038469E+01 -0.587785252292473E+00
  0.628318530717959E+00  0.502654824574367E+01 -0.559016994374947E+00
  0.628318530717959E+00  0.534070751110265E+01 -0.475528258147577E+00
  0.628318530717959E+00  0.565486677646163E+01 -0.345491502812526E+00
  0.628318530717959E+00  0.596902604182061E+01 -0.181635632001340E+00
  0.628318530717959E+00  0.628318530717959E+01 -0.143965865561199E-15
  0.942477796076938E+00  0.000000000000000E+00  0.000000000000000E+00
  0.942477796076938E+00  0.314159265358979E+00  0.250000000000000E+00
  0.942477796076938E+00  0.628318530717959E+00  0.475528258147577E+00
  0.942477796076938E+00  0.942477796076938E+00  0.654508497187474E+00
  0.942477796076938E+00  0.125663706143592E+01  0.769420884293814E+00
  0.942477796076938E+00  0.157079632679490E+01  0.809016994374948E+00
  0.942477796076938E+00  0.188495559215388E+01  0.769420884293814E+00
  0.942477796076938E+00  0.219911485751286E+01  0.654508497187474E+00
  0.942477796076938E+00  0.251327412287183E+01  0.475528258147577E+00
  0.942477796076938E+00  0.282743338823081E+01  0.250000000000000E+00
  0.942477796076938E+00  0.314159265358979E+01  0.990760072617092E-16
  0.942477796076938E+00  0.345575191894877E+01 -0.250000000000000E+00
  0.942477796076938E+00  0.376991118430775E+01 -0.475528258147577E+00
  0.942477796076938E+00  0.408407044966673E+01 -0.654508497187474E+00
  0.942477796076938E+00  0.439822971502571E+01 -0.769420884293814E+00
  0.942477796076938E+00  0.471238898038469E+01 -0.809016994374948E+00
  0.942477796076938E+00  0.502654824574367E+01 -0.769420884293814E+00
  0.942477796076938E+00  0.534070751110265E+01 -0.654508497187474E+00
  0.942477796076938E+00  0.565486677646163E+01 -0.475528258147577E+00
  0.942477796076938E+00  0.596902604182061E+01 -0.250000000000000E+00
  0.942477796076938E+00  0.628318530717959E+01 -0.198152014523418E-15
  0.125663706143592E+01  0.000000000000000E+00  0.000000000000000E+00
  0.125663706143592E+01  0.314159265358979E+00  0.293892626146237E+00
  0.125663706143592E+01  0.628318530717959E+00  0.559016994374947E+00
  0.125663706143592E+01  0.942477796076938E+00  0.769420884293814E+00
  0.125663706143592E+01  0.125663706143592E+01  0.904508497187474E+00
  0.125663706143592E+01  0.157079632679490E+01  0.951056516295154E+00
  0.125663706143592E+01  0.188495559215388E+01  0.904508497187474E+00
  0.125663706143592E+01  0.219911485751286E+01  0.769420884293814E+00
  0.125663706143592E+01  0.251327412287183E+01  0.559016994374947E+00
  0.125663706143592E+01  0.282743338823081E+01  0.293892626146237E+00
  0.125663706143592E+01  0.314159265358979E+01  0.116470831848909E-15
  0.125663706143592E+01  0.345575191894877E+01 -0.293892626146236E+00
  0.125663706143592E+01  0.376991118430775E+01 -0.559016994374947E+00
  0.125663706143592E+01  0.408407044966673E+01 -0.769420884293813E+00
  0.125663706143592E+01  0.439822971502571E+01 -0.904508497187474E+00
  0.125663706143592E+01  0.471238898038469E+01 -0.951056516295154E+00
  0.125663706143592E+01  0.502654824574367E+01 -0.904508497187474E+00
  0.125663706143592E+01  0.534070751110265E+01 -0.769420884293814E+00
  0.125663706143592E+01  0.565486677646163E+01 -0.559016994374948E+00
  0.125663706143592E+01  0.596902604182061E+01 -0.293892626146237E+00
  0.125663706143592E+01  0.628318530717959E+01 -0.232941663697819E-15
  0.157079632679490E+01  0.000000000000000E+00  0.000000000000000E+00
  0.157079632679490E+01  0.314159265358979E+00  0.309016994374947E+00
  0.157079632679490E+01  0.628318530717959E+00  0.587785252292473E+00
  0.157079632679490E+01  0.942477796076938E+00  0.809016994374948E+00
  0.157079632679490E+01  0.125663706143592E+01  0.951056516295154E+00
  0.157079632679490E+01  0.157079632679490E+01  0.100000000000000E+01
  0.157079632679490E+01  0.188495559215388E+01  0.951056516295154E+00
  0.157079632679490E+01  0.219911485751286E+01  0.809016994374948E+00
  0.157079632679490E+01  0.251327412287183E+01  0.587785252292473E+00
  0.157079632679490E+01  0.282743338823081E+01  0.309016994374948E+00
  0.157079632679490E+01  0.314159265358979E+01  0.122464679914735E-15
  0.157079632679490E+01  0.345575191894877E+01 -0.309016994374947E+00
  0.157079632679490E+01  0.376991118430775E+01 -0.587785252292473E+00
  0.157079632679490E+01  0.408407044966673E+01 -0.809016994374947E+00
  0.157079632679490E+01  0.439822971502571E+01 -0.951056516295154E+00
  0.157079632679490E+01  0.471238898038469E+01 -0.100000000000000E+01
  0.157079632679490E+01  0.502654824574367E+01 -0.951056516295154E+00
  0.157079632679490E+01  0.534070751110265E+01 -0.809016994374948E+00
  0.157079632679490E+01  0.565486677646163E+01 -0.587785252292473E+00
  0.157079632679490E+01  0.596902604182061E+01 -0.309016994374948E+00
  0.157079632679490E+01  0.628318530717959E+01 -0.244929359829471E-15
  0.188495559215388E+01  0.000000000000000E+00  0.000000000000000E+00
  0.188495559215388E+01  0.314159265358979E+00  0.293892626146237E+00
  0.188495559215388E+01  0.628318530717959E+00  0.559016994374947E+00
  0.188495559215388E+01  0.942477796076938E+00  0.769420884293814E+00
  0.188495559215388E+01  0.125663706143592E+01  0.904508497187474E+00
  0.188495559215388E+01  0.157079632679490E+01  0.951056516295154E+00
  0.188495559215388E+01  0.188495559215388E+01  0.904508497187474E+00
  0.188495559215388E+01  0.219911485751286E+01  0.769420884293814E+00
  0.188495559215388E+01  0.251327412287183E+01  0.559016994374948E+00
  0.188495559215388E+01  0.282743338823081E+01  0.293892626146237E+00
  0.188495559215388E+01  0.314159265358979E+01  0.116470831848909E-15
  0.188495559215388E+01  0.345575191894877E+01 -0.293892626146236E+00
  0.188495559215388E+01  0.376991118430775E+01 -0.559016994374947E+00
  0.188495559215388E+01  0.408407044966673E+01 -0.769420884293814E+00
  0.188495559215388E+01  0.439822971502571E+01 -0.904508497187474E+00
  0.188495559215388E+01  0.471238898038469E+01 -0.951056516295154E+00
  0.188495559215388E+01  0.502654824574367E+01 -0.904508497187474E+00
  0.188495559215388E+01  0.534070751110265E+01 -0.769420884293814E+00
  0.188495559215388E+01  0.565486677646163E+01 -0.559016994374948E+00
  0.188495559215388E+01  0.596902604182061E+01 -0.293892626146237E+00
  0.188495559215388E+01  0.628318530717959E+01 -0.232941663697819E-15
  0.219911485751286E+01  0.000000000000000E+00  0.000000000000000E+00
  0.219911485751286E+01  0.314159265358979E+00  0.250000000000000E+00
  0.219911485751286E+01  0.628318530717959E+00  0.475528258147577E+00
  0.219911485751286E+01  0.942477796076938E+00  0.654508497187474E+00
  0.219911485751286E+01  0.125663706143592E+01  0.769420884293814E+00
  0.219911485751286E+01  0.157079632679490E+01  0.809016994374948E+00
  0.219911485751286E+01  0.188495559215388E+01  0.769420884293814E+00
  0.219911485751286E+01  0.219911485751286E+01  0.654508497187474E+00
  0.219911485751286E+01  0.251327412287183E+01  0.475528258147577E+00
  0.219911485751286E+01  0.282743338823081E+01  0.250000000000000E+00
  0.219911485751286E+01  0.314159265358979E+01  0.990760072617092E-16
  0.219911485751286E+01  0.345575191894877E+01 -0.250000000000000E+00
  0.219911485751286E+01  0.376991118430775E+01 -0.475528258147577E+00
  0.219911485751286E+01  0.408407044966673E+01 -0.654508497187474E+00
  0.219911485751286E+01  0.439822971502571E+01 -0.769420884293814E+00
  0.219911485751286E+01  0.471238898038469E+01 -0.809016994374948E+00
  0.219911485751286E+01  0.502654824574367E+01 -0.769420884293814E+00
  0.219911485751286E+01  0.534070751110265E+01 -0.654508497187474E+00
  0.219911485751286E+01  0.565486677646163E+01 -0.475528258147577E+00
  0.219911485751286E+01  0.596902604182061E+01 -0.250000000000000E+00
  0.219911485751286E+01  0.628318530717959E+01 -0.198152014523418E-15
  0.251327412287183E+01  0.000000000000000E+00  0.000000000000000E+00
  0.251327412287183E+01  0.314159265358979E+00  0.181635632001340E+00
  0.251327412287183E+01  0.628318530717959E+00  0.345491502812526E+00
  0.251327412287183E+01  0.942477796076938E+00  0.475528258147577E+00
  0.251327412287183E+01  0.125663706143592E+01  0.559016994374947E+00
  0.251327412287183E+01  0.157079632679490E+01  0.587785252292473E+00
  0.251327412287183E+01  0.188495559215388E+01  0.559016994374948E+00
  0.251327412287183E+01  0.219911485751286E+01  0.475528258147577E+00
  0.251327412287183E+01  0.251327412287183E+01  0.345491502812526E+00
  0.251327412287183E+01  0.282743338823081E+01  0.181635632001340E+00
  0.251327412287183E+01  0.314159265358979E+01  0.719829327805997E-16
  0.251327412287183E+01  0.345575191894877E+01 -0.181635632001340E+00
  0.251327412287183E+01  0.376991118430775E+01 -0.345491502812526E+00
  0.251327412287183E+01  0.408407044966673E+01 -0.475528258147577E+00
  0.251327412287183E+01  0.439822971502571E+01 -0.559016994374947E+00
  0.251327412287183E+01  0.471238898038469E+01 -0.587785252292473E+00
  0.251327412287183E+01  0.502654824574367E+01 -0.559016994374948E+00
  0.251327412287183E+01  0.534070751110265E+01 -0.475528258147577E+00
  0.251327412287183E+01  0.565486677646163E+01 -0.345491502812526E+00
  0.251327412287183E+01  0.596902604182061E+01 -0.181635632001340E+00
  0.251327412287183E+01  0.628318530717959E+01 -0.143965865561199E-15
  0.282743338823081E+01  0.000000000000000E+00  0.000000000000000E+00
  0.282743338823081E+01  0.314159265358979E+00  0.954915028125263E-01
  0.282743338823081E+01  0.628318530717959E+00  0.181635632001340E+00
  0.282743338823081E+01  0.942477796076938E+00  0.250000000000000E+00
  0.282743338823081E+01  0.125663706143592E+01  0.293892626146237E+00
  0.282743338823081E+01  0.157079632679490E+01  0.309016994374948E+00
  0.282743338823081E+01  0.188495559215388E+01  0.293892626146237E+00
  0.282743338823081E+01  0.219911485751286E+01  0.250000000000000E+00
  0.282743338823081E+01  0.251327412287183E+01  0.181635632001340E+00
  0.282743338823081E+01  0.282743338823081E+01  0.954915028125264E-01
  0.282743338823081E+01  0.314159265358979E+01  0.378436673043415E-16
  0.282743338823081E+01  0.345575191894877E+01 -0.954915028125262E-01
  0.282743338823081E+01  0.376991118430775E+01 -0.181635632001340E+00
  0.282743338823081E+01  0.408407044966673E+01 -0.250000000000000E+00
  0.282743338823081E+01  0.439822971502571E+01 -0.293892626146237E+00
  0.282743338823081E+01  0.471238898038469E+01 -0.309016994374948E+00
  0.282743338823081E+01  0.502654824574367E+01 -0.293892626146237E+00
  0.282743338823081E+01  0.534070751110265E+01 -0.250000000000000E+00
  0.282743338823081E+01  0.565486677646163E+01 -0.181635632001340E+00
  0.282743338823081E+01  0.596902604182061E+01 -0.954915028125264E-01
  0.282743338823081E+01  0.628318530717959E+01 -0.756873346086830E-16
  0.314159265358979E+01  0.000000000000000E+00  0.000000000000000E+00
  0.314159265358979E+01  0.314159265358979E+00  0.378436673043415E-16
  0.314159265358979E+01  0.628318530717959E+00  0.719829327805997E-16
  0.314159265358979E+01  0.942477796076938E+00  0.990760072617092E-16
  0.314159265358979E+01  0.125663706143592E+01  0.116470831848909E-15
  0.314159265358979E+01  0.157079632679490E+01  0.122464679914735E-15
  0.314159265358979E+01  0.188495559215388E+01  0.116470831848909E-15
  0.314159265358979E+01  0.219911485751286E+01  0.990760072617092E-16
  0.314159265358979E+01  0.251327412287183E+01  0.719829327805997E-16
  0.314159265358979E+01  0.282743338823081E+01  0.378436673043415E-16
  0.314159265358979E+01  0.314159265358979E+01  0.149975978266186E-31
  0.314159265358979E+01  0.345575191894877E+01 -0.378436673043414E-16
  0.314159265358979E+01  0.376991118430775E+01 -0.719829327805996E-16
  0.314159265358979E+01  0.408407044966673E+01 -0.990760072617092E-16
  0.314159265358979E+01  0.439822971502571E+01 -0.116470831848909E-15
  0.314159265358979E+01  0.471238898038469E+01 -0.122464679914735E-15
  0.314159265358979E+01  0.502654824574367E+01 -0.116470831848909E-15
  0.314159265358979E+01  0.534070751110265E+01 -0.990760072617092E-16
  0.314159265358979E+01  0.565486677646163E+01 -0.719829327805997E-16
  0.314159265358979E+01  0.596902604182061E+01 -0.378436673043415E-16
  0.314159265358979E+01  0.628318530717959E+01 -0.299951956532372E-31
  0.345575191894877E+01  0.000000000000000E+00  0.000000000000000E+00
  0.345575191894877E+01  0.314159265358979E+00 -0.954915028125261E-01
  0.345575191894877E+01  0.628318530717959E+00 -0.181635632001340E+00
  0.345575191894877E+01  0.942477796076938E+00 -0.250000000000000E+00
  0.345575191894877E+01  0.125663706143592E+01 -0.293892626146236E+00
  0.345575191894877E+01  0.157079632679490E+01 -0.309016994374947E+00
  0.345575191894877E+01  0.188495559215388E+01 -0.293892626146236E+00
  0.345575191894877E+01  0.219911485751286E+01 -0.250000000000000E+00
  0.345575191894877E+01  0.251327412287183E+01 -0.181635632001340E+00
  0.345575191894877E+01  0.282743338823081E+01 -0.954915028125262E-01
  0.345575191894877E+01  0.314159265358979E+01 -0.378436673043414E-16
  0.345575191894877E+01  0.345575191894877E+01  0.954915028125260E-01
  0.345575191894877E+01  0.376991118430775E+01  0.181635632001340E+00
  0.345575191894877E+01  0.408407044966673E+01  0.250000000000000E+00
  0.345575191894877E+01  0.439822971502571E+01  0.293892626146236E+00
  0.345575191894877E+01  0.471238898038469E+01  0.309016994374947E+00
  0.345575191894877E+01  0.502654824574367E+01  0.293892626146236E+00
  0.345575191894877E+01  0.534070751110265E+01  0.250000000000000E+00
  0.345575191894877E+01  0.565486677646163E+01  0.181635632001340E+00
  0.345575191894877E+01  0.596902604182061E+01  0.954915028125262E-01
  0.345575191894877E+01  0.628318530717959E+01  0.756873346086829E-16
  0.376991118430775E+01  0.000000000000000E+00  0.000000000000000E+00
  0.376991118430775E+01  0.314159265358979E+00 -0.181635632001340E+00
  0.376991118430775E+01  0.628318530717959E+00 -0.345491502812526E+00
  0.376991118430775E+01  0.942477796076938E+00 -0.475528258147577E+00
  0.376991118430775E+01  0.125663706143592E+01 -0.559016994374947E+00
  0.376991118430775E+01  0.157079632679490E+01 -0.587785252292473E+00
  0.376991118430775E+01  0.188495559215388E+01 -0.559016994374947E+00
  0.376991118430775E+01  0.219911485751286E+01 -0.475528258147577E+00
  0.376991118430775E+01  0.251327412287183E+01 -0.345491502812526E+00
  0.376991118430775E+01  0.282743338823081E+01 -0.181635632001340E+00
  0.376991118430775E+01  0.314159265358979E+01 -0.719829327805996E-16
  0.376991118430775E+01  0.345575191894877E+01  0.181635632001340E+00
  0.376991118430775E+01  0.376991118430775E+01  0.345491502812526E+00
  0.376991118430775E+01  0.408407044966673E+01  0.475528258147577E+00
  0.376991118430775E+01  0.439822971502571E+01  0.559016994374947E+00
  0.376991118430775E+01  0.471238898038469E+01  0.587785252292473E+00
  0.376991118430775E+01  0.502654824574367E+01  0.559016994374947E+00
  0.376991118430775E+01  0.534070751110265E+01  0.475528258147577E+00
  0.376991118430775E+01  0.565486677646163E+01  0.345491502812526E+00
  0.376991118430775E+01  0.596902604182061E+01  0.181635632001340E+00
  0.376991118430775E+01  0.628318530717959E+01  0.143965865561199E-15
  0.408407044966673E+01  0.000000000000000E+00  0.000000000000000E+00
  0.408407044966673E+01  0.314159265358979E+00 -0.250000000000000E+00
  0.408407044966673E+01  0.628318530717959E+00 -0.475528258147577E+00
  0.408407044966673E+01  0.942477796076938E+00 -0.654508497187474E+00
  0.408407044966673E+01  0.125663706143592E+01 -0.769420884293813E+00
  0.408407044966673E+01  0.157079632679490E+01 -0.809016994374947E+00
  0.408407044966673E+01  0.188495559215388E+01 -0.769420884293814E+00
  0.408407044966673E+01  0.219911485751286E+01 -0.654508497187474E+00
  0.408407044966673E+01  0.251327412287183E+01 -0.475528258147577E+00
  0.408407044966673E+01  0.282743338823081E+01 -0.250000000000000E+00
  0.408407044966673E+01  0.314159265358979E+01 -0.990760072617092E-16
  0.408407044966673E+01  0.345575191894877E+01  0.250000000000000E+00
  0.408407044966673E+01  0.376991118430775E+01  0.475528258147577E+00
  0.408407044966673E+01  0.408407044966673E+01  0.654508497187474E+00
  0.408407044966673E+01  0.439822971502571E+01  0.769420884293813E+00
  0.408407044966673E+01  0.471238898038469E+01  0.809016994374947E+00
  0.408407044966673E+01  0.502654824574367E+01  0.769420884293814E+00
  0.408407044966673E+01  0.534070751110265E+01  0.654508497187474E+00
  0.408407044966673E+01  0.565486677646163E+01  0.475528258147577E+00
  0.408407044966673E+01  0.596902604182061E+01  0.250000000000000E+00
  0.408407044966673E+01  0.628318530717959E+01  0.198152014523418E-15
  0.439822971502571E+01  0.000000000000000E+00  0.000000000000000E+00
  0.439822971502571E+01  0.314159265358979E+00 -0.293892626146237E+00
  0.439822971502571E+01  0.628318530717959E+00 -0.559016994374947E+00
  0.439822971502571E+01  0.942477796076938E+00 -0.769420884293814E+00
  0.439822971502571E+01  0.125663706143592E+01 -0.904508497187474E+00
  0.439822971502571E+01  0.157079632679490E+01 -0.951056516295154E+00
  0.439822971502571E+01  0.188495559215388E+01 -0.904508497187474E+00
  0.439822971502571E+01  0.219911485751286E+01 -0.769420884293814E+00
  0.439822971502571E+01  0.251327412287183E+01 -0.559016994374947E+00
  0.439822971502571E+01  0.282743338823081E+01 -0.293892626146237E+00
  0.439822971502571E+01  0.314159265358979E+01 -0.116470831848909E-15
  0.439822971502571E+01  0.345575191894877E+01  0.293892626146236E+00
  0.439822971502571E+01  0.376991118430775E+01  0.559016994374947E+00
  0.439822971502571E+01  0.408407044966673E+01  0.769420884293813E+00
  0.439822971502571E+01  0.439822971502571E+01  0.904508497187474E+00
  0.439822971502571E+01  0.471238898038469E+01  0.951056516295154E+00
  0.439822971502571E+01  0.502654824574367E+01  0.904508497187474E+00
  0.439822971502571E+01  0.534070751110265E+01  0.769420884293814E+00
  0.439822971502571E+01  0.565486677646163E+01  0.559016994374948E+00
  0.439822971502571E+01  0.596902604182061E+01  0.293892626146237E+00
  0.439822971502571E+01  0.628318530717959E+01  0.232941663697818E-15
  0.471238898038469E+01  0.000000000000000E+00  0.000000000000000E+00
  0.471238898038469E+01  0.314159265358979E+00 -0.309016994374947E+00
  0.471238898038469E+01  0.628318530717959E+00 -0.587785252292473E+00
  0.471238898038469E+01  0.942477796076938E+00 -0.809016994374948E+00
  0.471238898038469E+01  0.125663706143592E+01 -0.951056516295154E+00
  0.471238898038469E+01  0.157079632679490E+01 -0.100000000000000E+01
  0.471238898038469E+01  0.188495559215388E+01 -0.951056516295154E+00
  0.471238898038469E+01  0.219911485751286E+01 -0.809016994374948E+00
  0.471238898038469E+01  0.251327412287183E+01 -0.587785252292473E+00
  0.471238898038469E+01  0.282743338823081E+01 -0.309016994374948E+00
  0.471238898038469E+01  0.314159265358979E+01 -0.122464679914735E-15
  0.471238898038469E+01  0.345575191894877E+01  0.309016994374947E+00
  0.471238898038469E+01  0.376991118430775E+01  0.587785252292473E+00
  0.471238898038469E+01  0.408407044966673E+01  0.809016994374947E+00
  0.471238898038469E+01  0.439822971502571E+01  0.951056516295154E+00
  0.471238898038469E+01  0.471238898038469E+01  0.100000000000000E+01
  0.471238898038469E+01  0.502654824574367E+01  0.951056516295154E+00
  0.471238898038469E+01  0.534070751110265E+01  0.809016994374948E+00
  0.471238898038469E+01  0.565486677646163E+01  0.587785252292473E+00
  0.471238898038469E+01  0.596902604182061E+01  0.309016994374948E+00
  0.471238898038469E+01  0.628318530717959E+01  0.244929359829471E-15
  0.502654824574367E+01  0.000000000000000E+00  0.000000000000000E+00
  0.502654824574367E+01  0.314159265358979E+00 -0.293892626146237E+00
  0.502654824574367E+01  0.628318530717959E+00 -0.559016994374947E+00
  0.502654824574367E+01  0.942477796076938E+00 -0.769420884293814E+00
  0.502654824574367E+01  0.125663706143592E+01 -0.904508497187474E+00
  0.502654824574367E+01  0.157079632679490E+01 -0.951056516295154E+00
  0.502654824574367E+01  0.188495559215388E+01 -0.904508497187474E+00
  0.502654824574367E+01  0.219911485751286E+01 -0.769420884293814E+00
  0.502654824574367E+01  0.251327412287183E+01 -0.559016994374948E+00
  0.502654824574367E+01  0.282743338823081E+01 -0.293892626146237E+00
  0.502654824574367E+01  0.314159265358979E+01 -0.116470831848909E-15
  0.502654824574367E+01  0.345575191894877E+01  0.293892626146236E+00
  0.502654824574367E+01  0.376991118430775E+01  0.559016994374947E+00
  0.502654824574367E+01  0.408407044966673E+01  0.769420884293814E+00
  0.502654824574367E+01  0.439822971502571E+01  0.904508497187474E+00
  0.502654824574367E+01  0.471238898038469E+01  0.951056516295154E+00
  0.502654824574367E+01  0.502654824574367E+01  0.904508497187474E+00
  0.502654824574367E+01  0.534070751110265E+01  0.769420884293814E+00
  0.502654824574367E+01  0.565486677646163E+01  0.559016994374948E+00
  0.502654824574367E+01  0.596902604182061E+01  0.293892626146237E+00
  0.502654824574367E+01  0.628318530717959E+01  0.232941663697819E-15
  0.534070751110265E+01  0.000000000000000E+00  0.000000000000000E+00
  0.534070751110265E+01  0.314159265358979E+00 -0.250000000000000E+00
  0.534070751110265E+01  0.628318530717959E+00 -0.475528258147577E+00
  0.534070751110265E+01  0.942477796076938E+00 -0.654508497187474E+00
  0.534070751110265E+01  0.125663706143592E+01 -0.769420884293814E+00
  0.534070751110265E+01  0.157079632679490E+01 -0.809016994374948E+00
  0.534070751110265E+01  0.188495559215388E+01 -0.769420884293814E+00
  0.534070751110265E+01  0.219911485751286E+01 -0.654508497187474E+00
  0.534070751110265E+01  0.251327412287183E+01 -0.475528258147577E+00
  0.534070751110265E+01  0.282743338823081E+01 -0.250000000000000E+00
  0.534070751110265E+01  0.314159265358979E+01 -0.990760072617092E-16
  0.534070751110265E+01  0.345575191894877E+01  0.250000000000000E+00
  0.534070751110265E+01  0.376991118430775E+01  0.475528258147577E+00
  0.534070751110265E+01  0.408407044966673E+01  0.654508497187474E+00
  0.534070751110265E+01  0.439822971502571E+01  0.769420884293814E+00
  0.534070751110265E+01  0.471238898038469E+01  0.809016994374948E+00
  0.534070751110265E+01  0.502654824574367E+01  0.769420884293814E+00
  0.534070751110265E+01  0.534070751110265E+01  0.654508497187474E+00
  0.534070751110265E+01  0.565486677646163E+01  0.475528258147577E+00
  0.534070751110265E+01  0.596902604182061E+01  0.250000000000000E+00
  0.534070751110265E+01  0.628318530717959E+01  0.198152014523418E-15
  0.565486677646163E+01  0.000000000000000E+00  0.000000000000000E+00
  0.565486677646163E+01  0.314159265358979E+00 -0.181635632001340E+00
  0.565486677646163E+01  0.628318530717959E+00 -0.345491502812526E+00
  0.565486677646163E+01  0.942477796076938E+00 -0.475528258147577E+00
  0.565486677646163E+01  0.125663706143592E+01 -0.559016994374948E+00
  0.565486677646163E+01  0.157079632679490E+01 -0.587785252292473E+00
  0.565486677646163E+01  0.188495559215388E+01 -0.559016994374948E+00
  0.565486677646163E+01  0.219911485751286E+01 -0.475528258147577E+00
  0.565486677646163E+01  0.251327412287183E+01 -0.345491502812526E+00
  0.565486677646163E+01  0.282743338823081E+01 -0.181635632001340E+00
  0.565486677646163E+01  0.314159265358979E+01 -0.719829327805997E-16
  0.565486677646163E+01  0.345575191894877E+01  0.181635632001340E+00
  0.565486677646163E+01  0.376991118430775E+01  0.345491502812526E+00
  0.565486677646163E+01  0.408407044966673E+01  0.475528258147577E+00
  0.565486677646163E+01  0.439822971502571E+01  0.559016994374948E+00
  0.565486677646163E+01  0.471238898038469E+01  0.587785252292473E+00
  0.565486677646163E+01  0.502654824574367E+01  0.559016994374948E+00
  0.565486677646163E+01  0.534070751110265E+01  0.475528258147577E+00
  0.565486677646163E+01  0.565486677646163E+01  0.345491502812526E+00
  0.565486677646163E+01  0.596902604182061E+01  0.181635632001340E+00
  0.565486677646163E+01  0.628318530717959E+01  0.143965865561199E-15
  0.596902604182061E+01  0.000000000000000E+00  0.000000000000000E+00
  0.596902604182061E+01  0.314159265358979E+00 -0.954915028125264E-01
  0.596902604182061E+01  0.628318530717959E+00 -0.181635632001340E+00
  0.596902604182061E+01  0.942477796076938E+00 -0.250000000000000E+00
  0.596902604182061E+01  0.125663706143592E+01 -0.293892626146237E+00
  0.596902604182061E+01  0.157079632679490E+01 -0.309016994374948E+00
  0.596902604182061E+01  0.188495559215388E+01 -0.293892626146237E+00
  0.596902604182061E+01  0.219911485751286E+01 -0.250000000000000E+00
  0.596902604182061E+01  0.251327412287183E+01 -0.181635632001340E+00
  0.596902604182061E+01  0.282743338823081E+01 -0.954915028125264E-01
  0.596902604182061E+01  0.314159265358979E+01 -0.378436673043415E-16
  0.596902604182061E+01  0.345575191894877E+01  0.954915028125262E-01
  0.596902604182061E+01  0.376991118430775E+01  0.181635632001340E+00
  0.596902604182061E+01  0.408407044966673E+01  0.250000000000000E+00
  0.596902604182061E+01  0.439822971502571E+01  0.293892626146237E+00
  0.596902604182061E+01  0.471238898038469E+01  0.309016994374948E+00
  0.596902604182061E+01  0.502654824574367E+01  0.293892626146237E+00
  0.596902604182061E+01  0.534070751110265E+01  0.250000000000000E+00
  0.596902604182061E+01  0.565486677646163E+01  0.181635632001340E+00
  0.596902604182061E+01  0.596902604182061E+01  0.954915028125264E-01
  0.596902604182061E+01  0.628318530717959E+01  0.756873346086831E-16
  0.628318530717959E+01  0.000000000000000E+00  0.000000000000000E+00
  0.628318530717959E+01  0.314159265358979E+00 -0.756873346086830E-16
  0.628318530717959E+01  0.628318530717959E+00 -0.143965865561199E-15
  0.628318530717959E+01  0.942477796076938E+00 -0.198152014523418E-15
  0.628318530717959E+01  0.125663706143592E+01 -0.232941663697819E-15
  0.628318530717959E+01  0.157079632679490E+01 -0.244929359829471E-15
  0.628318530717959E+01  0.188495559215388E+01 -0.232941663697819E-15