 VARIABLES =  $x$  (b)
 ZONE I=         676 ,DATAPACKING=POINT
 -0.100000000000000E+01 -0.100000000000000E+01  0.000000000000000E+00
 -0.100000000000000E+01 -0.992114701314478E+00  0.000000000000000E+00
 -0.100000000000000E+01 -0.968583161128631E+00  0.000000000000000E+00
 -0.100000000000000E+01 -0.929776485888251E+00  0.000000000000000E+00
 -0.100000000000000E+01 -0.876306680043864E+00  0.000000000000000E+00
 -0.100000000000000E+01 -0.809016994374947E+00  0.000000000000000E+00
 -0.100000000000000E+01 -0.728968627421411E+00  0.000000000000000E+00
 -0.100000000000000E+01 -0.637423989748690E+00  0.000000000000000E+00
 -0.100000000000000E+01 -0.535826794978997E+00  0.000000000000000E+00
 -0.100000000000000E+01 -0.425779291565073E+00  0.000000000000000E+00
 -0.100000000000000E+01 -0.309016994374947E+00  0.000000000000000E+00
 -0.100000000000000E+01 -0.187381314585725E+00  0.000000000000000E+00
 -0.100000000000000E+01 -0.627905195293134E-01  0.000000000000000E+00
 -0.100000000000000E+01  0.627905195293134E-01  0.000000000000000E+00
 -0.100000000000000E+01  0.187381314585725E+00  0.000000000000000E+00
 -0.100000000000000E+01  0.309016994374947E+00  0.000000000000000E+00
 -0.100000000000000E+01  0.425779291565073E+00  0.000000000000000E+00
 -0.100000000000000E+01  0.535826794978997E+00  0.000000000000000E+00
 -0.100000000000000E+01  0.637423989748690E+00  0.000000000000000E+00
 -0.100000000000000E+01  0.728968627421411E+00  0.000000000000000E+00
 -0.100000000000000E+01  0.809016994374947E+00  0.000000000000000E+00
 -0.100000000000000E+01  0.876306680043864E+00  0.000000000000000E+00
 -0.100000000000000E+01  0.929776485888251E+00  0.000000000000000E+00
 -0.100000000000000E+01  0.968583161128631E+00  0.000000000000000E+00
 -0.100000000000000E+01  0.992114701314478E+00  0.000000000000000E+00
 -0.100000000000000E+01  0.100000000000000E+01  0.000000000000000E+00
 -0.992114701314478E+00 -0.100000000000000E+01  0.000000000000000E+00
 -0.992114701314478E+00 -0.992114701314478E+00  0.376609536636369E-05
 -0.992114701314478E+00 -0.968583161128631E+00  0.152527018052001E-04
 -0.992114701314478E+00 -0.929776485888251E+00  0.364544937127084E-04
 -0.992114701314478E+00 -0.876306680043864E+00  0.753474392253029E-04
 -0.992114701314478E+00 -0.809016994374947E+00  0.152671346646361E-03
 -0.992114701314478E+00 -0.728968627421411E+00  0.310685516280227E-03
 -0.992114701314478E+00 -0.637423989748690E+00  0.618243037135054E-03
 -0.992114701314478E+00 -0.535826794978997E+00  0.115467907180552E-02
 -0.992114701314478E+00 -0.425779291565073E+00  0.195240520469444E-02
 -0.992114701314478E+00 -0.309016994374947E+00  0.291819884586645E-02
 -0.992114701314478E+00 -0.187381314585725E+00  0.381468557699047E-02
 -0.992114701314478E+00 -0.627905195293134E-01  0.435673925025427E-02
 -0.992114701314478E+00  0.627905195293134E-01  0.435673925025427E-02
 -0.992114701314478E+00  0.187381314585725E+00  0.381468557699048E-02
 -0.992114701314478E+00  0.309016994374947E+00  0.291819884586646E-02
 -0.992114701314478E+00  0.425779291565073E+00  0.195240520469446E-02
 -0.992114701314478E+00  0.535826794978997E+00  0.115467907180553E-02
 -0.992114701314478E+00  0.637423989748690E+00  0.618243037135055E-03
 -0.992114701314478E+00  0.728968627421411E+00  0.310685516280225E-03
 -0.992114701314478E+00  0.809016994374947E+00  0.152671346646358E-03
 -0.992114701314478E+00  0.876306680043864E+00  0.753474392253019E-04
 -0.992114701314478E+00  0.929776485888251E+00  0.364544937127076E-04
 -0.992114701314478E+00  0.968583161128631E+00  0.152527018051998E-04
 -0.992114701314478E+00  0.992114701314478E+00  0.376609536636324E-05
 -0.992114701314478E+00  0.100000000000000E+01  0.000000000000000E+00
 -0.968583161128631E+00 -0.100000000000000E+01  0.000000000000000E+00
 -0.968583161128631E+00 -0.992114701314478E+00  0.152527018052001E-04
 -0.968583161128631E+00 -0.968583161128631E+00  0.617617125278910E-04
 -0.968583161128631E+00 -0.929776485888251E+00  0.147576366948252E-03
 -0.968583161128631E+00 -0.876306680043864E+00  0.304841426402307E-03
 -0.968583161128631E+00 -0.809016994374947E+00  0.617056092237438E-03
 -0.968583161128631E+00 -0.728968627421411E+00  0.125397276181888E-02
 -0.968583161128631E+00 -0.637423989748690E+00  0.249107793203993E-02
 -0.968583161128631E+00 -0.535826794978997E+00  0.464317150125639E-02
 -0.968583161128631E+00 -0.425779291565073E+00  0.783283864373783E-02
 -0.968583161128631E+00 -0.309016994374947E+00  0.116783973596974E-01
 -0.968583161128631E+00 -0.187381314585725E+00  0.152311881552792E-01
 -0.968583161128631E+00 -0.627905195293134E-01  0.173705969273541E-01
 -0.968583161128631E+00  0.627905195293134E-01  0.173705969273541E-01
 -0.968583161128631E+00  0.187381314585725E+00  0.152311881552792E-01
 -0.968583161128631E+00  0.309016994374947E+00  0.116783973596975E-01
 -0.968583161128631E+00  0.425779291565073E+00  0.783283864373792E-02
 -0.968583161128631E+00  0.535826794978997E+00  0.464317150125640E-02
 -0.968583161128631E+00  0.637423989748690E+00  0.249107793203993E-02
 -0.968583161128631E+00  0.728968627421411E+00  0.125397276181887E-02
 -0.968583161128631E+00  0.809016994374947E+00  0.617056092237430E-03
 -0.968583161128631E+00  0.876306680043864E+00  0.304841426402301E-03
 -0.968583161128631E+00  0.929776485888251E+00  0.147576366948247E-03
 -0.968583161128631E+00  0.968583161128631E+00  0.617617125278908E-04
 -0.968583161128631E+00  0.992114701314478E+00  0.152527018051996E-04
 -0.968583161128631E+00  0.100000000000000E+01  0.000000000000000E+00
 -0.929776485888251E+00 -0.100000000000000E+01  0.000000000000000E+00
 -0.929776485888251E+00 -0.992114701314478E+00  0.364544937127084E-04
 -0.929776485888251E+00 -0.968583161128631E+00  0.147576366948252E-03
 -0.929776485888251E+00 -0.929776485888251E+00  0.352255632616092E-03
 -0.929776485888251E+00 -0.876306680043864E+00  0.725863828156178E-03
 -0.929776485888251E+00 -0.809016994374947E+00  0.146334564960130E-02
 -0.929776485888251E+00 -0.728968627421411E+00  0.295770497383299E-02
 -0.929776485888251E+00 -0.637423989748690E+00  0.583789610107406E-02
 -0.929776485888251E+00 -0.535826794978997E+00  0.108042702641947E-01
 -0.929776485888251E+00 -0.425779291565073E+00  0.180935818860009E-01
 -0.929776485888251E+00 -0.309016994374947E+00  0.267935884434269E-01
 -0.929776485888251E+00 -0.187381314585725E+00  0.347569641828058E-01
 -0.929776485888251E+00 -0.627905195293134E-01  0.395198828128994E-01
 -0.929776485888251E+00  0.627905195293134E-01  0.395198828128994E-01
 -0.929776485888251E+00  0.187381314585725E+00  0.347569641828058E-01
 -0.929776485888251E+00  0.309016994374947E+00  0.267935884434271E-01
 -0.929776485888251E+00  0.425779291565073E+00  0.180935818860010E-01
 -0.929776485888251E+00  0.535826794978997E+00  0.108042702641948E-01
 -0.929776485888251E+00  0.637423989748690E+00  0.583789610107406E-02
 -0.929776485888251E+00  0.728968627421411E+00  0.295770497383297E-02
 -0.929776485888251E+00  0.809016994374947E+00  0.146334564960128E-02
 -0.929776485888251E+00  0.876306680043864E+00  0.725863828156165E-03
 -0.929776485888251E+00  0.929776485888251E+00  0.352255632616081E-03
 -0.929776485888251E+00  0.968583161128631E+00  0.147576366948245E-03
 -0.929776485888251E+00  0.992114701314478E+00  0.364544937127068E-04
 -0.929776485888251E+00  0.100000000000000E+01  0.000000000000000E+00
 -0.876306680043864E+00 -0.100000000000000E+01  0.000000000000000E+00
 -0.876306680043864E+00 -0.992114701314478E+00  0.753474392253029E-04
 -0.876306680043864E+00 -0.968583161128631E+00  0.304841426402307E-03
 -0.876306680043864E+00 -0.929776485888251E+00  0.725863828156178E-03
 -0.876306680043864E+00 -0.876306680043864E+00  0.148716336965927E-02
 -0.876306680043864E+00 -0.809016994374947E+00  0.296950736906934E-02
 -0.876306680043864E+00 -0.728968627421411E+00  0.592455363648841E-02
 -0.876306680043864E+00 -0.637423989748690E+00  0.115126062812718E-01
 -0.876306680043864E+00 -0.535826794978997E+00  0.209364894925574E-01
 -0.876306680043864E+00 -0.425779291565073E+00  0.344240171903180E-01
 -0.876306680043864E+00 -0.309016994374947E+00  0.500944934373123E-01
 -0.876306680043864E+00 -0.187381314585725E+00  0.640752167584762E-01
 -0.876306680043864E+00 -0.627905195293134E-01  0.722771118634678E-01
 -0.876306680043864E+00  0.627905195293134E-01  0.722771118634678E-01
 -0.876306680043864E+00  0.187381314585725E+00  0.640752167584762E-01
 -0.876306680043864E+00  0.309016994374947E+00  0.500944934373127E-01
 -0.876306680043864E+00  0.425779291565073E+00  0.344240171903182E-01
 -0.876306680043864E+00  0.535826794978997E+00  0.209364894925576E-01
 -0.876306680043864E+00  0.637423989748690E+00  0.115126062812719E-01
 -0.876306680043864E+00  0.728968627421411E+00  0.592455363648838E-02
 -0.876306680043864E+00  0.809016994374947E+00  0.296950736906930E-02
 -0.876306680043864E+00  0.876306680043864E+00  0.148716336965924E-02
 -0.876306680043864E+00  0.929776485888251E+00  0.725863828156162E-03
 -0.876306680043864E+00  0.968583161128631E+00  0.304841426402294E-03
 -0.876306680043864E+00  0.992114701314478E+00  0.753474392253007E-04
 -0.876306680043864E+00  0.100000000000000E+01  0.000000000000000E+00
 -0.809016994374947E+00 -0.100000000000000E+01  0.000000000000000E+00
 -0.809016994374947E+00 -0.992114701314478E+00  0.152671346646361E-03
 -0.809016994374947E+00 -0.968583161128631E+00  0.617056092237438E-03
 -0.809016994374947E+00 -0.929776485888251E+00  0.146334564960130E-02
 -0.809016994374947E+00 -0.876306680043864E+00  0.296950736906934E-02
 -0.809016994374947E+00 -0.809016994374947E+00  0.583410895906783E-02
 -0.809016994374947E+00 -0.728968627421411E+00  0.113837235785323E-01
 -0.809016994374947E+00 -0.637423989748690E+00  0.215263610517477E-01
 -0.809016994374947E+00 -0.535826794978997E+00  0.379455285614333E-01
 -0.809016994374947E+00 -0.425779291565073E+00  0.603408661308947E-01
 -0.809016994374947E+00 -0.309016994374947E+00  0.850007113476442E-01
 -0.809016994374947E+00 -0.187381314585725E+00  0.105849525551166E+00
 -0.809016994374947E+00 -0.627905195293134E-01  0.117571352706938E+00
 -0.809016994374947E+00  0.627905195293134E-01  0.117571352706938E+00
 -0.809016994374947E+00  0.187381314585725E+00  0.105849525551166E+00
 -0.809016994374947E+00  0.309016994374947E+00  0.850007113476448E-01
 -0.809016994374947E+00  0.425779291565073E+00  0.603408661308951E-01
 -0.809016994374947E+00  0.535826794978997E+00  0.379455285614336E-01
 -0.809016994374947E+00  0.637423989748690E+00  0.215263610517478E-01
 -0.809016994374947E+00  0.728968627421411E+00  0.113837235785323E-01
 -0.809016994374947E+00  0.809016994374947E+00  0.583410895906777E-02
 -0.809016994374947E+00  0.876306680043864E+00  0.296950736906930E-02
 -0.809016994374947E+00  0.929776485888251E+00  0.146334564960127E-02
 -0.809016994374947E+00  0.968583161128631E+00  0.617056092237419E-03
 -0.809016994374947E+00  0.992114701314478E+00  0.152671346646355E-03
 -0.809016994374947E+00  0.100000000000000E+01  0.000000000000000E+00
 -0.728968627421411E+00 -0.100000000000000E+01  0.000000000000000E+00
 -0.728968627421411E+00 -0.992114701314478E+00  0.310685516280227E-03
 -0.728968627421411E+00 -0.968583161128631E+00  0.125397276181888E-02
 -0.728968627421411E+00 -0.929776485888251E+00  0.295770497383299E-02
 -0.728968627421411E+00 -0.876306680043864E+00  0.592455363648841E-02
 -0.728968627421411E+00 -0.809016994374947E+00  0.113837235785323E-01
 -0.728968627421411E+00 -0.728968627421411E+00  0.215302121159540E-01
 -0.728968627421411E+00 -0.637423989748690E+00  0.391491282118269E-01
 -0.728968627421411E+00 -0.535826794978997E+00  0.658934671883362E-01
 -0.728968627421411E+00 -0.425779291565073E+00  0.995416790552775E-01
 -0.728968627421411E+00 -0.309016994374947E+00  0.133120625209157E+00
 -0.728968627421411E+00 -0.187381314585725E+00  0.158553445799512E+00
 -0.728968627421411E+00 -0.627905195293134E-01  0.171522795362855E+00
 -0.728968627421411E+00  0.627905195293134E-01  0.171522795362855E+00
 -0.728968627421411E+00  0.187381314585725E+00  0.158553445799513E+00
 -0.728968627421411E+00  0.309016994374947E+00  0.133120625209158E+00
 -0.728968627421411E+00  0.425779291565073E+00  0.995416790552783E-01
 -0.728968627421411E+00  0.535826794978997E+00  0.658934671883367E-01
 -0.728968627421411E+00  0.637423989748690E+00  0.391491282118271E-01
 -0.728968627421411E+00  0.728968627421411E+00  0.215302121159540E-01
 -0.728968627421411E+00  0.809016994374947E+00  0.113837235785322E-01
 -0.728968627421411E+00  0.876306680043864E+00  0.592455363648836E-02
 -0.728968627421411E+00  0.929776485888251E+00  0.295770497383294E-02
 -0.728968627421411E+00  0.968583161128631E+00  0.125397276181884E-02
 -0.728968627421411E+00  0.992114701314478E+00  0.310685516280218E-03
 -0.728968627421411E+00  0.100000000000000E+01  0.000000000000000E+00
 -0.637423989748690E+00 -0.100000000000000E+01  0.000000000000000E+00
 -0.637423989748690E+00 -0.992114701314478E+00  0.618243037135054E-03
 -0.637423989748690E+00 -0.968583161128631E+00  0.249107793203993E-02
 -0.637423989748690E+00 -0.929776485888251E+00  0.583789610107406E-02
 -0.637423989748690E+00 -0.876306680043864E+00  0.115126062812718E-01
 -0.637423989748690E+00 -0.809016994374947E+00  0.215263610517477E-01
 -0.637423989748690E+00 -0.728968627421411E+00  0.391491282118269E-01
 -0.637423989748690E+00 -0.637423989748690E+00  0.676621633145687E-01
 -0.637423989748690E+00 -0.535826794978997E+00  0.107002355036113E+00
 -0.637423989748690E+00 -0.425779291565073E+00  0.150290948203945E+00
 -0.637423989748690E+00 -0.309016994374947E+00  0.185844235064581E+00
 -0.637423989748690E+00 -0.187381314585725E+00  0.206063292906791E+00
 -0.637423989748690E+00 -0.627905195293134E-01  0.213170346399292E+00
 -0.637423989748690E+00  0.627905195293134E-01  0.213170346399291E+00
 -0.637423989748690E+00  0.187381314585725E+00  0.206063292906792E+00
 -0.637423989748690E+00  0.309016994374947E+00  0.185844235064583E+00
 -0.637423989748690E+00  0.425779291565073E+00  0.150290948203947E+00
 -0.637423989748690E+00  0.535826794978997E+00  0.107002355036114E+00
 -0.637423989748690E+00  0.637423989748690E+00  0.676621633145690E-01
 -0.637423989748690E+00  0.728968627421411E+00  0.391491282118269E-01
 -0.637423989748690E+00  0.809016994374947E+00  0.215263610517476E-01
 -0.637423989748690E+00  0.876306680043864E+00  0.115126062812718E-01
 -0.637423989748690E+00  0.929776485888251E+00  0.583789610107403E-02
 -0.637423989748690E+00  0.968583161128631E+00  0.249107793203991E-02
 -0.637423989748690E+00  0.992114701314478E+00  0.618243037135054E-03
 -0.637423989748690E+00  0.100000000000000E+01  0.000000000000000E+00
 -0.535826794978997E+00 -0.100000000000000E+01  0.000000000000000E+00
 -0.535826794978997E+00 -0.992114701314478E+00  0.115467907180552E-02
 -0.535826794978997E+00 -0.968583161128631E+00  0.464317150125639E-02
 -0.535826794978997E+00 -0.929776485888251E+00  0.108042702641947E-01
 -0.535826794978997E+00 -0.876306680043864E+00  0.209364894925574E-01
 -0.535826794978997E+00 -0.809016994374947E+00  0.379455285614333E-01
 -0.535826794978997E+00 -0.728968627421411E+00  0.658934671883362E-01
 -0.535826794978997E+00 -0.637423989748690E+00  0.107002355036113E+00
 -0.535826794978997E+00 -0.535826794978997E+00  0.156079144493716E+00
 -0.535826794978997E+00 -0.425779291565073E+00  0.198015357807171E+00
 -0.535826794978997E+00 -0.309016994374947E+00  0.216953354111999E+00
 -0.535826794978997E+00 -0.187381314585725E+00  0.212382757346259E+00
 -0.535826794978997E+00 -0.627905195293134E-01  0.201440083626768E+00
 -0.535826794978997E+00  0.627905195293134E-01  0.201440083626768E+00
 -0.535826794978997E+00  0.187381314585725E+00  0.212382757346260E+00
 -0.535826794978997E+00  0.309016994374947E+00  0.216953354112001E+00
 -0.535826794978997E+00  0.425779291565073E+00  0.198015357807173E+00
 -0.535826794978997E+00  0.535826794978997E+00  0.156079144493717E+00
 -0.535826794978997E+00  0.637423989748690E+00  0.107002355036114E+00
 -0.535826794978997E+00  0.728968627421411E+00  0.658934671883364E-01
 -0.535826794978997E+00  0.809016994374947E+00  0.379455285614333E-01
 -0.535826794978997E+00  0.876306680043864E+00  0.209364894925574E-01
 -0.535826794978997E+00  0.929776485888251E+00  0.108042702641947E-01
 -0.535826794978997E+00  0.968583161128631E+00  0.464317150125637E-02
 -0.535826794978997E+00  0.992114701314478E+00  0.115467907180552E-02
 -0.535826794978997E+00  0.100000000000000E+01  0.000000000000000E+00
 -0.425779291565073E+00 -0.100000000000000E+01  0.000000000000000E+00
 -0.425779291565073E+00 -0.992114701314478E+00  0.195240520469444E-02
 -0.425779291565073E+00 -0.968583161128631E+00  0.783283864373783E-02
 -0.425779291565073E+00 -0.929776485888251E+00  0.180935818860009E-01
 -0.425779291565073E+00 -0.876306680043864E+00  0.344240171903180E-01
 -0.425779291565073E+00 -0.809016994374947E+00  0.603408661308947E-01
 -0.425779291565073E+00 -0.728968627421411E+00  0.995416790552775E-01
 -0.425779291565073E+00 -0.637423989748690E+00  0.150290948203945E+00
 -0.425779291565073E+00 -0.535826794978997E+00  0.198015357807171E+00
 -0.425779291565073E+00 -0.425779291565073E+00  0.217558207482496E+00
 -0.425779291565073E+00 -0.309016994374947E+00  0.194124616042381E+00
 -0.425779291565073E+00 -0.187381314585725E+00  0.144091006987627E+00
 -0.425779291565073E+00 -0.627905195293134E-01  0.105013028928231E+00
 -0.425779291565073E+00  0.627905195293134E-01  0.105013028928232E+00
 -0.425779291565073E+00  0.187381314585725E+00  0.144091006987628E+00
 -0.425779291565073E+00  0.309016994374947E+00  0.194124616042384E+00
 -0.425779291565073E+00  0.425779291565073E+00  0.217558207482498E+00
 -0.425779291565073E+00  0.535826794978997E+00  0.198015357807173E+00
 -0.425779291565073E+00  0.637423989748690E+00  0.150290948203947E+00
 -0.425779291565073E+00  0.728968627421411E+00  0.995416790552784E-01
 -0.425779291565073E+00  0.809016994374947E+00  0.603408661308950E-01
 -0.425779291565073E+00  0.876306680043864E+00  0.344240171903181E-01
 -0.425779291565073E+00  0.929776485888251E+00  0.180935818860010E-01
 -0.425779291565073E+00  0.968583161128631E+00  0.783283864373787E-02
 -0.425779291565073E+00  0.992114701314478E+00  0.195240520469446E-02
 -0.425779291565073E+00  0.100000000000000E+01  0.000000000000000E+00
 -0.309016994374947E+00 -0.100000000000000E+01  0.000000000000000E+00
 -0.309016994374947E+00 -0.992114701314478E+00  0.291819884586645E-02
 -0.309016994374947E+00 -0.968583161128631E+00  0.116783973596974E-01
 -0.309016994374947E+00 -0.929776485888251E+00  0.267935884434269E-01
 -0.309016994374947E+00 -0.876306680043864E+00  0.500944934373123E-01
 -0.309016994374947E+00 -0.809016994374947E+00  0.850007113476442E-01
 -0.309016994374947E+00 -0.728968627421411E+00  0.133120625209157E+00
 -0.309016994374947E+00 -0.637423989748690E+00  0.185844235064581E+00
 -0.309016994374947E+00 -0.535826794978997E+00  0.216953354111999E+00
 -0.309016994374947E+00 -0.425779291565073E+00  0.194124616042381E+00
 -0.309016994374947E+00 -0.309016994374947E+00  0.112938975766418E+00
 -0.309016994374947E+00 -0.187381314585725E+00  0.136498649147718E-01
 -0.309016994374947E+00 -0.627905195293134E-01 -0.505437708894950E-01
 -0.309016994374947E+00  0.627905195293134E-01 -0.505437708894939E-01
 -0.309016994374947E+00  0.187381314585725E+00  0.136498649147740E-01
 -0.309016994374947E+00  0.309016994374947E+00  0.112938975766420E+00
 -0.309016994374947E+00  0.425779291565073E+00  0.194124616042384E+00
 -0.309016994374947E+00  0.535826794978997E+00  0.216953354112002E+00
 -0.309016994374947E+00  0.637423989748690E+00  0.185844235064583E+00
 -0.309016994374947E+00  0.728968627421411E+00  0.133120625209159E+00
 -0.309016994374947E+00  0.809016994374947E+00  0.850007113476449E-01
 -0.309016994374947E+00  0.876306680043864E+00  0.500944934373127E-01
 -0.309016994374947E+00  0.929776485888251E+00  0.267935884434273E-01
 -0.309016994374947E+00  0.968583161128631E+00  0.116783973596976E-01
 -0.309016994374947E+00  0.992114701314478E+00  0.291819884586648E-02
 -0.309016994374947E+00  0.100000000000000E+01  0.000000000000000E+00
 -0.187381314585725E+00 -0.100000000000000E+01  0.000000000000000E+00
 -0.187381314585725E+00 -0.992114701314478E+00  0.381468557699047E-02
 -0.187381314585725E+00 -0.968583161128631E+00  0.152311881552792E-01
 -0.187381314585725E+00 -0.929776485888251E+00  0.347569641828058E-01
 -0.187381314585725E+00 -0.876306680043864E+00  0.640752167584762E-01
 -0.187381314585725E+00 -0.809016994374947E+00  0.105849525551166E+00
 -0.187381314585725E+00 -0.728968627421411E+00  0.158553445799512E+00
 -0.187381314585725E+00 -0.637423989748690E+00  0.206063292906791E+00
 -0.187381314585725E+00 -0.535826794978997E+00  0.212382757346259E+00
 -0.187381314585725E+00 -0.425779291565073E+00  0.144091006987627E+00
 -0.187381314585725E+00 -0.309016994374947E+00  0.136498649147718E-01
 -0.187381314585725E+00 -0.187381314585725E+00 -0.116790668716706E+00
 -0.187381314585725E+00 -0.627905195293134E-01 -0.190956808025623E+00
 -0.187381314585725E+00  0.627905195293134E-01 -0.190956808025621E+00
 -0.187381314585725E+00  0.187381314585725E+00 -0.116790668716703E+00
 -0.187381314585725E+00  0.309016994374947E+00  0.136498649147742E-01
 -0.187381314585725E+00  0.425779291565073E+00  0.144091006987629E+00
 -0.187381314585725E+00  0.535826794978997E+00  0.212382757346262E+00
 -0.187381314585725E+00  0.637423989748690E+00  0.206063292906794E+00
 -0.187381314585725E+00  0.728968627421411E+00  0.158553445799515E+00
 -0.187381314585725E+00  0.809016994374947E+00  0.105849525551167E+00
 -0.187381314585725E+00  0.876306680043864E+00  0.640752167584768E-01
 -0.187381314585725E+00  0.929776485888251E+00  0.347569641828063E-01
 -0.187381314585725E+00  0.968583161128631E+00  0.152311881552795E-01
 -0.187381314585725E+00  0.992114701314478E+00  0.381468557699056E-02
 -0.187381314585725E+00  0.100000000000000E+01  0.000000000000000E+00
 -0.627905195293134E-01 -0.100000000000000E+01  0.000000000000000E+00
 -0.627905195293134E-01 -0.992114701314478E+00  0.435673925025427E-02
 -0.627905195293134E-01 -0.968583161128631E+00  0.173705969273541E-01
 -0.627905195293134E-01 -0.929776485888251E+00  0.395198828128994E-01
 -0.627905195293134E-01 -0.876306680043864E+00  0.722771118634678E-01
 -0.627905195293134E-01 -0.809016994374947E+00  0.117571352706938E+00
 -0.627905195293134E-01 -0.728968627421411E+00  0.171522795362855E+00
 -0.627905195293134E-01 -0.637423989748690E+00  0.213170346399292E+00
 -0.627905195293134E-01 -0.535826794978997E+00  0.201440083626768E+00
 -0.627905195293134E-01 -0.425779291565073E+00  0.105013028928231E+00
 -0.627905195293134E-01 -0.309016994374947E+00 -0.505437708894950E-01
 -0.627905195293134E-01 -0.187381314585725E+00 -0.190956808025623E+00
 -0.627905195293134E-01 -0.627905195293134E-01 -0.263973176113562E+00
 -0.627905195293134E-01  0.627905195293134E-01 -0.263973176113561E+00
 -0.627905195293134E-01  0.187381314585725E+00 -0.190956808025619E+00
 -0.627905195293134E-01  0.309016994374947E+00 -0.505437708894926E-01
 -0.627905195293134E-01  0.425779291565073E+00  0.105013028928234E+00
 -0.627905195293134E-01  0.535826794978997E+00  0.201440083626771E+00
 -0.627905195293134E-01  0.637423989748690E+00  0.213170346399295E+00
 -0.627905195293134E-01  0.728968627421411E+00  0.171522795362858E+00
 -0.627905195293134E-01  0.809016994374947E+00  0.117571352706939E+00
 -0.627905195293134E-01  0.876306680043864E+00  0.722771118634686E-01
 -0.627905195293134E-01  0.929776485888251E+00  0.395198828129000E-01
 -0.627905195293134E-01  0.968583161128631E+00  0.173705969273545E-01
 -0.627905195293134E-01  0.992114701314478E+00  0.435673925025439E-02
 -0.627905195293134E-01  0.100000000000000E+01  0.000000000000000E+00
  0.627905195293134E-01 -0.100000000000000E+01  0.000000000000000E+00
  0.627905195293134E-01 -0.992114701314478E+00  0.435673925025427E-02
  0.627905195293134E-01 -0.968583161128631E+00  0.173705969273541E-01
  0.627905195293134E-01 -0.929776485888251E+00  0.395198828128994E-01
  0.627905195293134E-01 -0.876306680043864E+00  0.722771118634678E-01
  0.627905195293134E-01 -0.809016994374947E+00  0.117571352706938E+00
  0.627905195293134E-01 -0.728968627421411E+00  0.171522795362855E+00
  0.627905195293134E-01 -0.637423989748690E+00  0.213170346399291E+00
  0.627905195293134E-01 -0.535826794978997E+00  0.201440083626768E+00
  0.627905195293134E-01 -0.425779291565073E+00  0.105013028928232E+00
  0.627905195293134E-01 -0.309016994374947E+00 -0.505437708894939E-01
  0.627905195293134E-01 -0.187381314585725E+00 -0.190956808025621E+00
  0.627905195293134E-01 -0.627905195293134E-01 -0.263973176113561E+00
  0.627905195293134E-01  0.627905195293134E-01 -0.263973176113560E+00
  0.627905195293134E-01  0.187381314585725E+00 -0.190956808025618E+00
  0.627905195293134E-01  0.309016994374947E+00 -0.505437708894916E-01
  0.627905195293134E-01  0.425779291565073E+00  0.105013028928234E+00
  0.627905195293134E-01  0.535826794978997E+00  0.201440083626771E+00
  0.627905195293134E-01  0.637423989748690E+00  0.213170346399295E+00
  0.627905195293134E-01  0.728968627421411E+00  0.171522795362858E+00
  0.627905195293134E-01  0.809016994374947E+00  0.117571352706939E+00
  0.627905195293134E-01  0.876306680043864E+00  0.722771118634686E-01
  0.627905195293134E-01  0.929776485888251E+00  0.395198828129000E-01
  0.627905195293134E-01  0.968583161128631E+00  0.173705969273545E-01
  0.627905195293134E-01  0.992114701314478E+00  0.435673925025438E-02
  0.627905195293134E-01  0.100000000000000E+01  0.000000000000000E+00
  0.187381314585725E+00 -0.100000000000000E+01  0.000000000000000E+00
  0.187381314585725E+00 -0.992114701314478E+00  0.381468557699048E-02
  0.187381314585725E+00 -0.968583161128631E+00  0.152311881552792E-01
  0.187381314585725E+00 -0.929776485888251E+00  0.347569641828058E-01
  0.187381314585725E+00 -0.876306680043864E+00  0.640752167584762E-01
  0.187381314585725E+00 -0.809016994374947E+00  0.105849525551166E+00
  0.187381314585725E+00 -0.728968627421411E+00  0.158553445799513E+00
  0.187381314585725E+00 -0.637423989748690E+00  0.206063292906792E+00
  0.187381314585725E+00 -0.535826794978997E+00  0.212382757346260E+00
  0.187381314585725E+00 -0.425779291565073E+00  0.144091006987628E+00
  0.187381314585725E+00 -0.309016994374947E+00  0.136498649147740E-01
  0.187381314585725E+00 -0.187381314585725E+00 -0.116790668716703E+00
  0.187381314585725E+00 -0.627905195293134E-01 -0.190956808025619E+00
  0.187381314585725E+00  0.627905195293134E-01 -0.190956808025618E+00
  0.187381314585725E+00  0.187381314585725E+00 -0.116790668716700E+00
  0.187381314585725E+00  0.309016994374947E+00  0.136498649147765E-01
  0.187381314585725E+00  0.425779291565073E+00  0.144091006987630E+00
  0.187381314585725E+00  0.535826794978997E+00  0.212382757346263E+00
  0.187381314585725E+00  0.637423989748690E+00  0.206063292906795E+00
  0.187381314585725E+00  0.728968627421411E+00  0.158553445799515E+00
  0.187381314585725E+00  0.809016994374947E+00  0.105849525551167E+00
  0.187381314585725E+00  0.876306680043864E+00  0.640752167584769E-01
  0.187381314585725E+00  0.929776485888251E+00  0.347569641828063E-01
  0.187381314585725E+00  0.968583161128631E+00  0.152311881552795E-01
  0.187381314585725E+00  0.992114701314478E+00  0.381468557699055E-02
  0.187381314585725E+00  0.100000000000000E+01  0.000000000000000E+00
  0.309016994374947E+00 -0.100000000000000E+01  0.000000000000000E+00
  0.309016994374947E+00 -0.992114701314478E+00  0.291819884586646E-02
  0.309016994374947E+00 -0.968583161128631E+00  0.116783973596975E-01
  0.309016994374947E+00 -0.929776485888251E+00  0.267935884434271E-01
  0.309016994374947E+00 -0.876306680043864E+00  0.500944934373127E-01
  0.309016994374947E+00 -0.809016994374947E+00  0.850007113476448E-01
  0.309016994374947E+00 -0.728968627421411E+00  0.133120625209158E+00
  0.309016994374947E+00 -0.637423989748690E+00  0.185844235064583E+00
  0.309016994374947E+00 -0.535826794978997E+00  0.216953354112001E+00
  0.309016994374947E+00 -0.425779291565073E+00  0.194124616042384E+00
  0.309016994374947E+00 -0.309016994374947E+00  0.112938975766420E+00
  0.309016994374947E+00 -0.187381314585725E+00  0.136498649147742E-01
  0.309016994374947E+00 -0.627905195293134E-01 -0.505437708894926E-01
  0.309016994374947E+00  0.627905195293134E-01 -0.505437708894916E-01
  0.309016994374947E+00  0.187381314585725E+00  0.136498649147765E-01
  0.309016994374947E+00  0.309016994374947E+00  0.112938975766422E+00
  0.309016994374947E+00  0.425779291565073E+00  0.194124616042387E+00
  0.309016994374947E+00  0.535826794978997E+00  0.216953354112004E+00
  0.309016994374947E+00  0.637423989748690E+00  0.185844235064585E+00
  0.309016994374947E+00  0.728968627421411E+00  0.133120625209160E+00
  0.309016994374947E+00  0.809016994374947E+00  0.850007113476454E-01
  0.309016994374947E+00  0.876306680043864E+00  0.500944934373130E-01
  0.309016994374947E+00  0.929776485888251E+00  0.267935884434274E-01
  0.309016994374947E+00  0.968583161128631E+00  0.116783973596977E-01
  0.309016994374947E+00  0.992114701314478E+00  0.291819884586650E-02
  0.309016994374947E+00  0.100000000000000E+01  0.000000000000000E+00
  0.425779291565073E+00 -0.100000000000000E+01  0.000000000000000E+00
  0.425779291565073E+00 -0.992114701314478E+00  0.195240520469446E-02
  0.425779291565073E+00 -0.968583161128631E+00  0.783283864373792E-02
  0.425779291565073E+00 -0.929776485888251E+00  0.180935818860010E-01
  0.425779291565073E+00 -0.876306680043864E+00  0.344240171903182E-01
  0.425779291565073E+00 -0.809016994374947E+00  0.603408661308951E-01
  0.425779291565073E+00 -0.728968627421411E+00  0.995416790552783E-01
  0.425779291565073E+00 -0.637423989748690E+00  0.150290948203947E+00
  0.425779291565073E+00 -0.535826794978997E+00  0.198015357807173E+00
  0.425779291565073E+00 -0.425779291565073E+00  0.217558207482498E+00
  0.425779291565073E+00 -0.309016994374947E+00  0.194124616042384E+00