 VARIABLES =  $x$  (e)
 ZONE I=         676 ,DATAPACKING=POINT
 -0.100000000000000E+01 -0.100000000000000E+01  0.166666666667759E-38
 -0.100000000000000E+01 -0.992114701314478E+00  0.166666666667759E-38
 -0.100000000000000E+01 -0.968583161128631E+00  0.166666666667759E-38
 -0.100000000000000E+01 -0.929776485888251E+00  0.166666666667759E-38
 -0.100000000000000E+01 -0.876306680043864E+00  0.166666666667759E-38
 -0.100000000000000E+01 -0.809016994374947E+00  0.166666666667759E-38
 -0.100000000000000E+01 -0.728968627421411E+00  0.166666666667759E-38
 -0.100000000000000E+01 -0.637423989748690E+00  0.166666666667759E-38
 -0.100000000000000E+01 -0.535826794978997E+00  0.166666666667759E-38
 -0.100000000000000E+01 -0.425779291565073E+00  0.166666666667759E-38
 -0.100000000000000E+01 -0.309016994374947E+00  0.166666666667759E-38
 -0.100000000000000E+01 -0.187381314585725E+00  0.166666666667759E-38
 -0.100000000000000E+01 -0.627905195293134E-01  0.166666666667759E-38
 -0.100000000000000E+01  0.627905195293134E-01  0.166666666667759E-38
 -0.100000000000000E+01  0.187381314585725E+00  0.166666666667759E-38
 -0.100000000000000E+01  0.309016994374947E+00  0.166666666667759E-38
 -0.100000000000000E+01  0.425779291565073E+00  0.166666666667759E-38
 -0.100000000000000E+01  0.535826794978997E+00  0.166666666667759E-38
 -0.100000000000000E+01  0.637423989748690E+00  0.166666666667759E-38
 -0.100000000000000E+01  0.728968627421411E+00  0.166666666667759E-38
 -0.100000000000000E+01  0.809016994374947E+00  0.166666666667759E-38
 -0.100000000000000E+01  0.876306680043864E+00  0.166666666667759E-38
 -0.100000000000000E+01  0.929776485888251E+00  0.166666666667759E-38
 -0.100000000000000E+01  0.968583161128631E+00  0.166666666667759E-38
 -0.100000000000000E+01  0.992114701314478E+00  0.166666666667759E-38
 -0.100000000000000E+01  0.100000000000000E+01  0.166666666667759E-38
 -0.992114701314478E+00 -0.100000000000000E+01  0.166666666667759E-38
 -0.992114701314478E+00 -0.992114701314478E+00 -0.565795514188557E-05
 -0.992114701314478E+00 -0.968583161128631E+00 -0.201791441228015E-04
 -0.992114701314478E+00 -0.929776485888251E+00 -0.227041187594250E-04
 -0.992114701314478E+00 -0.876306680043864E+00  0.614942032656078E-04
 -0.992114701314478E+00 -0.809016994374947E+00  0.398294438413654E-03
 -0.992114701314478E+00 -0.728968627421411E+00  0.123100149221362E-02
 -0.992114701314478E+00 -0.637423989748690E+00  0.271043050056454E-02
 -0.992114701314478E+00 -0.535826794978997E+00  0.448824080432051E-02
 -0.992114701314478E+00 -0.425779291565073E+00  0.535281508859539E-02
 -0.992114701314478E+00 -0.309016994374947E+00  0.379957072573044E-02
 -0.992114701314478E+00 -0.187381314585725E+00 -0.967910112146225E-04
 -0.992114701314478E+00 -0.627905195293134E-01 -0.360742071202599E-02
 -0.992114701314478E+00  0.627905195293134E-01 -0.360742071202615E-02
 -0.992114701314478E+00  0.187381314585725E+00 -0.967910112148913E-04
 -0.992114701314478E+00  0.309016994374947E+00  0.379957072573002E-02
 -0.992114701314478E+00  0.425779291565073E+00  0.535281508859519E-02
 -0.992114701314478E+00  0.535826794978997E+00  0.448824080432097E-02
 -0.992114701314478E+00  0.637423989748690E+00  0.271043050056516E-02
 -0.992114701314478E+00  0.728968627421411E+00  0.123100149221401E-02
 -0.992114701314478E+00  0.809016994374947E+00  0.398294438413793E-03
 -0.992114701314478E+00  0.876306680043864E+00  0.614942032655801E-04
 -0.992114701314478E+00  0.929776485888251E+00 -0.227041187594296E-04
 -0.992114701314478E+00  0.968583161128631E+00 -0.201791441227813E-04
 -0.992114701314478E+00  0.992114701314478E+00 -0.565795514191571E-05
 -0.992114701314478E+00  0.100000000000000E+01  0.166666666667759E-38
 -0.968583161128631E+00 -0.100000000000000E+01  0.166666666667759E-38
 -0.968583161128631E+00 -0.992114701314478E+00 -0.201791441228015E-04
 -0.968583161128631E+00 -0.968583161128631E+00 -0.710380936392213E-04
 -0.968583161128631E+00 -0.929776485888251E+00 -0.699437172334307E-04
 -0.968583161128631E+00 -0.876306680043864E+00  0.279173998837532E-03
 -0.968583161128631E+00 -0.809016994374947E+00  0.163323643654045E-02
 -0.968583161128631E+00 -0.728968627421411E+00  0.495427716814904E-02
 -0.968583161128631E+00 -0.637423989748690E+00  0.108344760058244E-01
 -0.968583161128631E+00 -0.535826794978997E+00  0.178863506379902E-01
 -0.968583161128631E+00 -0.425779291565073E+00  0.213071012234622E-01
 -0.968583161128631E+00 -0.309016994374947E+00  0.151430345511127E-01
 -0.968583161128631E+00 -0.187381314585725E+00 -0.300834860302252E-03
 -0.968583161128631E+00 -0.627905195293134E-01 -0.142117730112497E-01
 -0.968583161128631E+00  0.627905195293134E-01 -0.142117730112506E-01
 -0.968583161128631E+00  0.187381314585725E+00 -0.300834860303083E-03
 -0.968583161128631E+00  0.309016994374947E+00  0.151430345511113E-01
 -0.968583161128631E+00  0.425779291565073E+00  0.213071012234622E-01
 -0.968583161128631E+00  0.535826794978997E+00  0.178863506379916E-01
 -0.968583161128631E+00  0.637423989748690E+00  0.108344760058263E-01
 -0.968583161128631E+00  0.728968627421411E+00  0.495427716814986E-02
 -0.968583161128631E+00  0.809016994374947E+00  0.163323643654122E-02
 -0.968583161128631E+00  0.876306680043864E+00  0.279173998837430E-03
 -0.968583161128631E+00  0.929776485888251E+00 -0.699437172330995E-04
 -0.968583161128631E+00  0.968583161128631E+00 -0.710380936390875E-04
 -0.968583161128631E+00  0.992114701314478E+00 -0.201791441228252E-04
 -0.968583161128631E+00  0.100000000000000E+01  0.166666666667759E-38
 -0.929776485888251E+00 -0.100000000000000E+01  0.166666666667759E-38
 -0.929776485888251E+00 -0.992114701314478E+00 -0.227041187594250E-04
 -0.929776485888251E+00 -0.968583161128631E+00 -0.699437172334307E-04
 -0.929776485888251E+00 -0.929776485888251E+00  0.383322311761609E-04
 -0.929776485888251E+00 -0.876306680043864E+00  0.948475573723414E-03
 -0.929776485888251E+00 -0.809016994374947E+00  0.409157089824184E-02
 -0.929776485888251E+00 -0.728968627421411E+00  0.115487269869414E-01
 -0.929776485888251E+00 -0.637423989748690E+00  0.245572892778702E-01
 -0.929776485888251E+00 -0.535826794978997E+00  0.399957562429072E-01
 -0.929776485888251E+00 -0.425779291565073E+00  0.472951923903598E-01
 -0.929776485888251E+00 -0.309016994374947E+00  0.334489017624085E-01
 -0.929776485888251E+00 -0.187381314585725E+00 -0.768826193484031E-03
 -0.929776485888251E+00 -0.627905195293134E-01 -0.315124039451031E-01
 -0.929776485888251E+00  0.627905195293134E-01 -0.315124039451050E-01
 -0.929776485888251E+00  0.187381314585725E+00 -0.768826193486350E-03
 -0.929776485888251E+00  0.309016994374947E+00  0.334489017624060E-01
 -0.929776485888251E+00  0.425779291565073E+00  0.472951923903601E-01
 -0.929776485888251E+00  0.535826794978997E+00  0.399957562429084E-01
 -0.929776485888251E+00  0.637423989748690E+00  0.245572892778735E-01
 -0.929776485888251E+00  0.728968627421411E+00  0.115487269869434E-01
 -0.929776485888251E+00  0.809016994374947E+00  0.409157089824341E-02
 -0.929776485888251E+00  0.876306680043864E+00  0.948475573723493E-03
 -0.929776485888251E+00  0.929776485888251E+00  0.383322311764604E-04
 -0.929776485888251E+00  0.968583161128631E+00 -0.699437172331299E-04
 -0.929776485888251E+00  0.992114701314478E+00 -0.227041187593802E-04
 -0.929776485888251E+00  0.100000000000000E+01  0.166666666667759E-38
 -0.876306680043864E+00 -0.100000000000000E+01  0.166666666667759E-38
 -0.876306680043864E+00 -0.992114701314478E+00  0.614942032656078E-04
 -0.876306680043864E+00 -0.968583161128631E+00  0.279173998837532E-03
 -0.876306680043864E+00 -0.929776485888251E+00  0.948475573723414E-03
 -0.876306680043864E+00 -0.876306680043864E+00  0.313591476148379E-02
 -0.876306680043864E+00 -0.809016994374947E+00  0.919029523820177E-02
 -0.876306680043864E+00 -0.728968627421411E+00  0.224638947255776E-01
 -0.876306680043864E+00 -0.637423989748690E+00  0.447554120885939E-01
 -0.876306680043864E+00 -0.535826794978997E+00  0.704915287356056E-01
 -0.876306680043864E+00 -0.425779291565073E+00  0.818095979676701E-01
 -0.876306680043864E+00 -0.309016994374947E+00  0.571346148297003E-01
 -0.876306680043864E+00 -0.187381314585725E+00 -0.177336357266196E-02
 -0.876306680043864E+00 -0.627905195293134E-01 -0.543581544344913E-01
 -0.876306680043864E+00  0.627905195293134E-01 -0.543581544344933E-01
 -0.876306680043864E+00  0.187381314585725E+00 -0.177336357266556E-02
 -0.876306680043864E+00  0.309016994374947E+00  0.571346148296974E-01
 -0.876306680043864E+00  0.425779291565073E+00  0.818095979676697E-01
 -0.876306680043864E+00  0.535826794978997E+00  0.704915287356066E-01
 -0.876306680043864E+00  0.637423989748690E+00  0.447554120885974E-01
 -0.876306680043864E+00  0.728968627421411E+00  0.224638947255811E-01
 -0.876306680043864E+00  0.809016994374947E+00  0.919029523820356E-02
 -0.876306680043864E+00  0.876306680043864E+00  0.313591476148464E-02
 -0.876306680043864E+00  0.929776485888251E+00  0.948475573723845E-03
 -0.876306680043864E+00  0.968583161128631E+00  0.279173998838027E-03
 -0.876306680043864E+00  0.992114701314478E+00  0.614942032657455E-04
 -0.876306680043864E+00  0.100000000000000E+01  0.166666666667759E-38
 -0.809016994374947E+00 -0.100000000000000E+01  0.166666666667759E-38
 -0.809016994374947E+00 -0.992114701314478E+00  0.398294438413654E-03
 -0.809016994374947E+00 -0.968583161128631E+00  0.163323643654045E-02
 -0.809016994374947E+00 -0.929776485888251E+00  0.409157089824184E-02
 -0.809016994374947E+00 -0.876306680043864E+00  0.919029523820177E-02
 -0.809016994374947E+00 -0.809016994374947E+00  0.200180853170604E-01
 -0.809016994374947E+00 -0.728968627421411E+00  0.408049726271841E-01
 -0.809016994374947E+00 -0.637423989748690E+00  0.732413450709978E-01
 -0.809016994374947E+00 -0.535826794978997E+00  0.108610064446703E+00
 -0.809016994374947E+00 -0.425779291565073E+00  0.121642960310597E+00
 -0.809016994374947E+00 -0.309016994374947E+00  0.829095036008122E-01
 -0.809016994374947E+00 -0.187381314585725E+00 -0.384920675653000E-02
 -0.809016994374947E+00 -0.627905195293134E-01 -0.803415502611614E-01
 -0.809016994374947E+00  0.627905195293134E-01 -0.803415502611629E-01
 -0.809016994374947E+00  0.187381314585725E+00 -0.384920675653443E-02
 -0.809016994374947E+00  0.309016994374947E+00  0.829095036008080E-01
 -0.809016994374947E+00  0.425779291565073E+00  0.121642960310595E+00
 -0.809016994374947E+00  0.535826794978997E+00  0.108610064446703E+00
 -0.809016994374947E+00  0.637423989748690E+00  0.732413450710014E-01
 -0.809016994374947E+00  0.728968627421411E+00  0.408049726271882E-01
 -0.809016994374947E+00  0.809016994374947E+00  0.200180853170644E-01
 -0.809016994374947E+00  0.876306680043864E+00  0.919029523820408E-02
 -0.809016994374947E+00  0.929776485888251E+00  0.409157089824286E-02
 -0.809016994374947E+00  0.968583161128631E+00  0.163323643654071E-02
 -0.809016994374947E+00  0.992114701314478E+00  0.398294438413666E-03
 -0.809016994374947E+00  0.100000000000000E+01  0.166666666667759E-38
 -0.728968627421411E+00 -0.100000000000000E+01  0.166666666667759E-38
 -0.728968627421411E+00 -0.992114701314478E+00  0.123100149221362E-02
 -0.728968627421411E+00 -0.968583161128631E+00  0.495427716814904E-02
 -0.728968627421411E+00 -0.929776485888251E+00  0.115487269869414E-01
 -0.728968627421411E+00 -0.876306680043864E+00  0.224638947255776E-01
 -0.728968627421411E+00 -0.809016994374947E+00  0.408049726271841E-01
 -0.728968627421411E+00 -0.728968627421411E+00  0.704473722898823E-01
 -0.728968627421411E+00 -0.637423989748690E+00  0.111570369483764E+00
 -0.728968627421411E+00 -0.535826794978997E+00  0.151969289819661E+00
 -0.728968627421411E+00 -0.425779291565073E+00  0.161143988091803E+00
 -0.728968627421411E+00 -0.309016994374947E+00  0.105572313999170E+00
 -0.728968627421411E+00 -0.187381314585725E+00 -0.773681327731213E-02
 -0.728968627421411E+00 -0.627905195293134E-01 -0.105737767775414E+00
 -0.728968627421411E+00  0.627905195293134E-01 -0.105737767775417E+00
 -0.728968627421411E+00  0.187381314585725E+00 -0.773681327731776E-02
 -0.728968627421411E+00  0.309016994374947E+00  0.105572313999164E+00
 -0.728968627421411E+00  0.425779291565073E+00  0.161143988091800E+00
 -0.728968627421411E+00  0.535826794978997E+00  0.151969289819662E+00
 -0.728968627421411E+00  0.637423989748690E+00  0.111570369483768E+00
 -0.728968627421411E+00  0.728968627421411E+00  0.704473722898856E-01
 -0.728968627421411E+00  0.809016994374947E+00  0.408049726271888E-01
 -0.728968627421411E+00  0.876306680043864E+00  0.224638947255818E-01
 -0.728968627421411E+00  0.929776485888251E+00  0.115487269869428E-01
 -0.728968627421411E+00  0.968583161128631E+00  0.495427716814916E-02
 -0.728968627421411E+00  0.992114701314478E+00  0.123100149221374E-02
 -0.728968627421411E+00  0.100000000000000E+01  0.166666666667759E-38
 -0.637423989748690E+00 -0.100000000000000E+01  0.166666666667759E-38
 -0.637423989748690E+00 -0.992114701314478E+00  0.271043050056454E-02
 -0.637423989748690E+00 -0.968583161128631E+00  0.108344760058244E-01
 -0.637423989748690E+00 -0.929776485888251E+00  0.245572892778702E-01
 -0.637423989748690E+00 -0.876306680043864E+00  0.447554120885939E-01
 -0.637423989748690E+00 -0.809016994374947E+00  0.732413450709978E-01
 -0.637423989748690E+00 -0.728968627421411E+00  0.111570369483764E+00
 -0.637423989748690E+00 -0.637423989748690E+00  0.156743072444859E+00
 -0.637423989748690E+00 -0.535826794978997E+00  0.193786360951954E+00
 -0.637423989748690E+00 -0.425779291565073E+00  0.191648636882365E+00
 -0.637423989748690E+00 -0.309016994374947E+00  0.118712287236119E+00
 -0.637423989748690E+00 -0.187381314585725E+00 -0.141981482867626E-01
 -0.637423989748690E+00 -0.627905195293134E-01 -0.126424788027023E+00
 -0.637423989748690E+00  0.627905195293134E-01 -0.126424788027026E+00
 -0.637423989748690E+00  0.187381314585725E+00 -0.141981482867700E-01
 -0.637423989748690E+00  0.309016994374947E+00  0.118712287236112E+00
 -0.637423989748690E+00  0.425779291565073E+00  0.191648636882361E+00
 -0.637423989748690E+00  0.535826794978997E+00  0.193786360951955E+00
 -0.637423989748690E+00  0.637423989748690E+00  0.156743072444864E+00
 -0.637423989748690E+00  0.728968627421411E+00  0.111570369483769E+00
 -0.637423989748690E+00  0.809016994374947E+00  0.732413450710022E-01
 -0.637423989748690E+00  0.876306680043864E+00  0.447554120885986E-01
 -0.637423989748690E+00  0.929776485888251E+00  0.245572892778745E-01
 -0.637423989748690E+00  0.968583161128631E+00  0.108344760058260E-01
 -0.637423989748690E+00  0.992114701314478E+00  0.271043050056485E-02
 -0.637423989748690E+00  0.100000000000000E+01  0.166666666667759E-38
 -0.535826794978997E+00 -0.100000000000000E+01  0.166666666667759E-38
 -0.535826794978997E+00 -0.992114701314478E+00  0.448824080432051E-02
 -0.535826794978997E+00 -0.968583161128631E+00  0.178863506379902E-01
 -0.535826794978997E+00 -0.929776485888251E+00  0.399957562429072E-01
 -0.535826794978997E+00 -0.876306680043864E+00  0.704915287356056E-01
 -0.535826794978997E+00 -0.809016994374947E+00  0.108610064446703E+00
 -0.535826794978997E+00 -0.728968627421411E+00  0.151969289819661E+00
 -0.535826794978997E+00 -0.637423989748690E+00  0.193786360951954E+00
 -0.535826794978997E+00 -0.535826794978997E+00  0.218636104894686E+00
 -0.535826794978997E+00 -0.425779291565073E+00  0.200476173567401E+00
 -0.535826794978997E+00 -0.309016994374947E+00  0.114607095264866E+00
 -0.535826794978997E+00 -0.187381314585725E+00 -0.259273151762297E-01
 -0.535826794978997E+00 -0.627905195293134E-01 -0.141957226751656E+00
 -0.535826794978997E+00  0.627905195293134E-01 -0.141957226751660E+00
 -0.535826794978997E+00  0.187381314585725E+00 -0.259273151762388E-01
 -0.535826794978997E+00  0.309016994374947E+00  0.114607095264857E+00
 -0.535826794978997E+00  0.425779291565073E+00  0.200476173567397E+00
 -0.535826794978997E+00  0.535826794978997E+00  0.218636104894687E+00
 -0.535826794978997E+00  0.637423989748690E+00  0.193786360951956E+00
 -0.535826794978997E+00  0.728968627421411E+00  0.151969289819666E+00
 -0.535826794978997E+00  0.809016994374947E+00  0.108610064446707E+00
 -0.535826794978997E+00  0.876306680043864E+00  0.704915287356091E-01
 -0.535826794978997E+00  0.929776485888251E+00  0.399957562429095E-01
 -0.535826794978997E+00  0.968583161128631E+00  0.178863506379914E-01
 -0.535826794978997E+00  0.992114701314478E+00  0.448824080432114E-02
 -0.535826794978997E+00  0.100000000000000E+01  0.166666666667759E-38
 -0.425779291565073E+00 -0.100000000000000E+01  0.166666666667759E-38
 -0.425779291565073E+00 -0.992114701314478E+00  0.535281508859539E-02
 -0.425779291565073E+00 -0.968583161128631E+00  0.213071012234622E-01
 -0.425779291565073E+00 -0.929776485888251E+00  0.472951923903598E-01
 -0.425779291565073E+00 -0.876306680043864E+00  0.818095979676701E-01
 -0.425779291565073E+00 -0.809016994374947E+00  0.121642960310597E+00
 -0.425779291565073E+00 -0.728968627421411E+00  0.161143988091803E+00
 -0.425779291565073E+00 -0.637423989748690E+00  0.191648636882365E+00
 -0.425779291565073E+00 -0.535826794978997E+00  0.200476173567401E+00
 -0.425779291565073E+00 -0.425779291565073E+00  0.169550306228599E+00
 -0.425779291565073E+00 -0.309016994374947E+00  0.812985948089234E-01
 -0.425779291565073E+00 -0.187381314585725E+00 -0.529495934509606E-01
 -0.425779291565073E+00 -0.627905195293134E-01 -0.162687404556790E+00
 -0.425779291565073E+00  0.627905195293134E-01 -0.162687404556793E+00
 -0.425779291565073E+00  0.187381314585725E+00 -0.529495934509701E-01
 -0.425779291565073E+00  0.309016994374947E+00  0.812985948089124E-01
 -0.425779291565073E+00  0.425779291565073E+00  0.169550306228591E+00
 -0.425779291565073E+00  0.535826794978997E+00  0.200476173567399E+00
 -0.425779291565073E+00  0.637423989748690E+00  0.191648636882365E+00
 -0.425779291565073E+00  0.728968627421411E+00  0.161143988091804E+00
 -0.425779291565073E+00  0.809016994374947E+00  0.121642960310599E+00
 -0.425779291565073E+00  0.876306680043864E+00  0.818095979676721E-01
 -0.425779291565073E+00  0.929776485888251E+00  0.472951923903620E-01
 -0.425779291565073E+00  0.968583161128631E+00  0.213071012234636E-01
 -0.425779291565073E+00  0.992114701314478E+00  0.535281508859577E-02
 -0.425779291565073E+00  0.100000000000000E+01  0.166666666667759E-38
 -0.309016994374947E+00 -0.100000000000000E+01  0.166666666667759E-38
 -0.309016994374947E+00 -0.992114701314478E+00  0.379957072573044E-02
 -0.309016994374947E+00 -0.968583161128631E+00  0.151430345511127E-01
 -0.309016994374947E+00 -0.929776485888251E+00  0.334489017624085E-01
 -0.309016994374947E+00 -0.876306680043864E+00  0.571346148297003E-01
 -0.309016994374947E+00 -0.809016994374947E+00  0.829095036008122E-01
 -0.309016994374947E+00 -0.728968627421411E+00  0.105572313999170E+00
 -0.309016994374947E+00 -0.637423989748690E+00  0.118712287236119E+00
 -0.309016994374947E+00 -0.535826794978997E+00  0.114607095264866E+00
 -0.309016994374947E+00 -0.425779291565073E+00  0.812985948089234E-01
 -0.309016994374947E+00 -0.309016994374947E+00  0.346097169374815E-02
 -0.309016994374947E+00 -0.187381314585725E+00 -0.113547623497596E+00
 -0.309016994374947E+00 -0.627905195293134E-01 -0.210516566553165E+00
 -0.309016994374947E+00  0.627905195293134E-01 -0.210516566553169E+00
 -0.309016994374947E+00  0.187381314585725E+00 -0.113547623497606E+00
 -0.309016994374947E+00  0.309016994374947E+00  0.346097169373409E-02
 -0.309016994374947E+00  0.425779291565073E+00  0.812985948089114E-01
 -0.309016994374947E+00  0.535826794978997E+00  0.114607095264858E+00
 -0.309016994374947E+00  0.637423989748690E+00  0.118712287236115E+00
 -0.309016994374947E+00  0.728968627421411E+00  0.105572313999167E+00
 -0.309016994374947E+00  0.809016994374947E+00  0.829095036008109E-01
 -0.309016994374947E+00  0.876306680043864E+00  0.571346148296992E-01
 -0.309016994374947E+00  0.929776485888251E+00  0.334489017624072E-01
 -0.309016994374947E+00  0.968583161128631E+00  0.151430345511121E-01
 -0.309016994374947E+00  0.992114701314478E+00  0.379957072573022E-02
 -0.309016994374947E+00  0.100000000000000E+01  0.166666666667759E-38
 -0.187381314585725E+00 -0.100000000000000E+01  0.166666666667759E-38
 -0.187381314585725E+00 -0.992114701314478E+00 -0.967910112146225E-04
 -0.187381314585725E+00 -0.968583161128631E+00 -0.300834860302252E-03
 -0.187381314585725E+00 -0.929776485888251E+00 -0.768826193484031E-03
 -0.187381314585725E+00 -0.876306680043864E+00 -0.177336357266196E-02
 -0.187381314585725E+00 -0.809016994374947E+00 -0.384920675653000E-02
 -0.187381314585725E+00 -0.728968627421411E+00 -0.773681327731213E-02
 -0.187381314585725E+00 -0.637423989748690E+00 -0.141981482867626E-01
 -0.187381314585725E+00 -0.535826794978997E+00 -0.259273151762297E-01
 -0.187381314585725E+00 -0.425779291565073E+00 -0.529495934509606E-01
 -0.187381314585725E+00 -0.309016994374947E+00 -0.113547623497596E+00
 -0.187381314585725E+00 -0.187381314585725E+00 -0.210063077454747E+00
 -0.187381314585725E+00 -0.627905195293134E-01 -0.293180115044985E+00
 -0.187381314585725E+00  0.627905195293134E-01 -0.293180115044989E+00
 -0.187381314585725E+00  0.187381314585725E+00 -0.210063077454757E+00
 -0.187381314585725E+00  0.309016994374947E+00 -0.113547623497611E+00
 -0.187381314585725E+00  0.425779291565073E+00 -0.529495934509748E-01
 -0.187381314585725E+00  0.535826794978997E+00 -0.259273151762409E-01
 -0.187381314585725E+00  0.637423989748690E+00 -0.141981482867710E-01
 -0.187381314585725E+00  0.728968627421411E+00 -0.773681327731811E-02
 -0.187381314585725E+00  0.809016994374947E+00 -0.384920675653383E-02
 -0.187381314585725E+00  0.876306680043864E+00 -0.177336357266567E-02
 -0.187381314585725E+00  0.929776485888251E+00 -0.768826193485896E-03
 -0.187381314585725E+00  0.968583161128631E+00 -0.300834860302507E-03
 -0.187381314585725E+00  0.992114701314478E+00 -0.967910112146619E-04
 -0.187381314585725E+00  0.100000000000000E+01  0.166666666667759E-38
 -0.627905195293134E-01 -0.100000000000000E+01  0.166666666667759E-38
 -0.627905195293134E-01 -0.992114701314478E+00 -0.360742071202599E-02
 -0.627905195293134E-01 -0.968583161128631E+00 -0.142117730112497E-01
 -0.627905195293134E-01 -0.929776485888251E+00 -0.315124039451031E-01
 -0.627905195293134E-01 -0.876306680043864E+00 -0.543581544344913E-01
 -0.627905195293134E-01 -0.809016994374947E+00 -0.803415502611614E-01
 -0.627905195293134E-01 -0.728968627421411E+00 -0.105737767775414E+00
 -0.627905195293134E-01 -0.637423989748690E+00 -0.126424788027023E+00
 -0.627905195293134E-01 -0.535826794978997E+00 -0.141957226751656E+00
 -0.627905195293134E-01 -0.425779291565073E+00 -0.162687404556790E+00
 -0.627905195293134E-01 -0.309016994374947E+00 -0.210516566553165E+00
 -0.627905195293134E-01 -0.187381314585725E+00 -0.293180115044985E+00
 -0.627905195293134E-01 -0.627905195293134E-01 -0.367218404171934E+00
 -0.627905195293134E-01  0.627905195293134E-01 -0.367218404171938E+00
 -0.627905195293134E-01  0.187381314585725E+00 -0.293180115044995E+00
 -0.627905195293134E-01  0.309016994374947E+00 -0.210516566553180E+00
 -0.627905195293134E-01  0.425779291565073E+00 -0.162687404556805E+00
 -0.627905195293134E-01  0.535826794978997E+00 -0.141957226751670E+00
 -0.627905195293134E-01  0.637423989748690E+00 -0.126424788027034E+00
 -0.627905195293134E-01  0.728968627421411E+00 -0.105737767775423E+00
 -0.627905195293134E-01  0.809016994374947E+00 -0.803415502611679E-01
 -0.627905195293134E-01  0.876306680043864E+00 -0.543581544344964E-01
 -0.627905195293134E-01  0.929776485888251E+00 -0.315124039451061E-01
 -0.627905195293134E-01  0.968583161128631E+00 -0.142117730112509E-01
 -0.627905195293134E-01  0.992114701314478E+00 -0.360742071202620E-02
 -0.627905195293134E-01  0.100000000000000E+01  0.166666666667759E-38
  0.627905195293134E-01 -0.100000000000000E+01  0.166666666667759E-38
  0.627905195293134E-01 -0.992114701314478E+00 -0.360742071202615E-02
  0.627905195293134E-01 -0.968583161128631E+00 -0.142117730112506E-01
  0.627905195293134E-01 -0.929776485888251E+00 -0.315124039451050E-01
  0.627905195293134E-01 -0.876306680043864E+00 -0.543581544344933E-01
  0.627905195293134E-01 -0.809016994374947E+00 -0.803415502611629E-01
  0.627905195293134E-01 -0.728968627421411E+00 -0.105737767775417E+00
  0.627905195293134E-01 -0.637423989748690E+00 -0.126424788027026E+00
  0.627905195293134E-01 -0.535826794978997E+00 -0.141957226751660E+00
  0.627905195293134E-01 -0.425779291565073E+00 -0.162687404556793E+00
  0.627905195293134E-01 -0.309016994374947E+00 -0.210516566553169E+00
  0.627905195293134E-01 -0.187381314585725E+00 -0.293180115044989E+00
  0.627905195293134E-01 -0.627905195293134E-01 -0.367218404171938E+00
  0.627905195293134E-01  0.627905195293134E-01 -0.367218404171942E+00
  0.627905195293134E-01  0.187381314585725E+00 -0.293180115044999E+00
  0.627905195293134E-01  0.309016994374947E+00 -0.210516566553184E+00
  0.627905195293134E-01  0.425779291565073E+00 -0.162687404556808E+00
  0.627905195293134E-01  0.535826794978997E+00 -0.141957226751673E+00
  0.627905195293134E-01  0.637423989748690E+00 -0.126424788027038E+00
  0.627905195293134E-01  0.728968627421411E+00 -0.105737767775425E+00
  0.627905195293134E-01  0.809016994374947E+00 -0.803415502611702E-01
  0.627905195293134E-01  0.876306680043864E+00 -0.543581544344981E-01
  0.627905195293134E-01  0.929776485888251E+00 -0.315124039451071E-01
  0.627905195293134E-01  0.968583161128631E+00 -0.142117730112514E-01
  0.627905195293134E-01  0.992114701314478E+00 -0.360742071202638E-02
  0.627905195293134E-01  0.100000000000000E+01  0.166666666667759E-38
  0.187381314585725E+00 -0.100000000000000E+01  0.166666666667759E-38
  0.187381314585725E+00 -0.992114701314478E+00 -0.967910112148913E-04
  0.187381314585725E+00 -0.968583161128631E+00 -0.300834860303083E-03
  0.187381314585725E+00 -0.929776485888251E+00 -0.768826193486350E-03
  0.187381314585725E+00 -0.876306680043864E+00 -0.177336357266556E-02
  0.187381314585725E+00 -0.809016994374947E+00 -0.384920675653443E-02
  0.187381314585725E+00 -0.728968627421411E+00 -0.773681327731776E-02
  0.187381314585725E+00 -0.637423989748690E+00 -0.141981482867700E-01
  0.187381314585725E+00 -0.535826794978997E+00 -0.259273151762388E-01
  0.187381314585725E+00 -0.425779291565073E+00 -0.529495934509701E-01
  0.187381314585725E+00 -0.309016994374947E+00 -0.113547623497606E+00
  0.187381314585725E+00 -0.187381314585725E+00 -0.210063077454757E+00
  0.187381314585725E+00 -0.627905195293134E-01 -0.293180115044995E+00
  0.187381314585725E+00  0.627905195293134E-01 -0.293180115044999E+00
  0.187381314585725E+00  0.187381314585725E+00 -0.210063077454767E+00
  0.187381314585725E+00  0.309016994374947E+00 -0.113547623497620E+00
  0.187381314585725E+00  0.425779291565073E+00 -0.529495934509834E-01
  0.187381314585725E+00  0.535826794978997E+00 -0.259273151762497E-01
  0.187381314585725E+00  0.637423989748690E+00 -0.141981482867775E-01
  0.187381314585725E+00  0.728968627421411E+00 -0.773681327732386E-02
  0.187381314585725E+00  0.809016994374947E+00 -0.384920675653895E-02
  0.187381314585725E+00  0.876306680043864E+00 -0.177336357266838E-02
  0.187381314585725E+00  0.929776485888251E+00 -0.768826193487967E-03
  0.187381314585725E+00  0.968583161128631E+00 -0.300834860303681E-03
  0.187381314585725E+00  0.992114701314478E+00 -0.967910112150106E-04
  0.187381314585725E+00  0.100000000000000E+01  0.166666666667759E-38
  0.309016994374947E+00 -0.100000000000000E+01  0.166666666667759E-38
  0.309016994374947E+00 -0.992114701314478E+00  0.379957072573002E-02
  0.309016994374947E+00 -0.968583161128631E+00  0.151430345511113E-01
  0.309016994374947E+00 -0.929776485888251E+00  0.334489017624060E-01
  0.309016994374947E+00 -0.876306680043864E+00  0.571346148296974E-01
  0.309016994374947E+00 -0.809016994374947E+00  0.829095036008080E-01
  0.309016994374947E+00 -0.728968627421411E+00  0.105572313999164E+00
  0.309016994374947E+00 -0.637423989748690E+00  0.118712287236112E+00
  0.309016994374947E+00 -0.535826794978997E+00  0.114607095264857E+00
  0.309016994374947E+00 -0.425779291565073E+00  0.812985948089124E-01
  0.309016994374947E+00 -0.309016994374947E+00  0.346097169373409E-02
  0.309016994374947E+00 -0.187381314585725E+00 -0.113547623497611E+00
  0.309016994374947E+00 -0.627905195293134E-01 -0.210516566553180E+00
  0.309016994374947E+00  0.627905195293134E-01 -0.210516566553184E+00
  0.309016994374947E+00  0.187381314585725E+00 -0.113547623497620E+00
  0.309016994374947E+00  0.309016994374947E+00  0.346097169372137E-02
  0.309016994374947E+00  0.425779291565073E+00  0.812985948089006E-01
  0.309016994374947E+00  0.535826794978997E+00  0.114607095264849E+00
  0.309016994374947E+00  0.637423989748690E+00  0.118712287236107E+00
  0.309016994374947E+00  0.728968627421411E+00  0.105572313999162E+00
  0.309016994374947E+00  0.809016994374947E+00  0.829095036008073E-01
  0.309016994374947E+00  0.876306680043864E+00  0.571346148296968E-01
  0.309016994374947E+00  0.929776485888251E+00  0.334489017624059E-01
  0.309016994374947E+00  0.968583161128631E+00  0.151430345511118E-01
  0.309016994374947E+00  0.992114701314478E+00  0.379957072573017E-02
  0.309016994374947E+00  0.100000000000000E+01  0.166666666667759E-38
  0.425779291565073E+00 -0.100000000000000E+01  0.166666666667759E-38
  0.425779291565073E+00 -0.992114701314478E+00  0.535281508859519E-02
  0.425779291565073E+00 -0.968583161128631E+00  0.213071012234622E-01
  0.425779291565073E+00 -0.929776485888251E+00  0.472951923903601E-01
  0.425779291565073E+00 -0.876306680043864E+00  0.818095979676697E-01
  0.425779291565073E+00 -0.809016994374947E+00  0.121642960310595E+00
  0.425779291565073E+00 -0.728968627421411E+00  0.161143988091800E+00
  0.425779291565073E+00 -0.637423989748690E+00  0.191648636882361E+00
  0.425779291565073E+00 -0.535826794978997E+00  0.200476173567397E+00
  0.425779291565073E+00 -0.425779291565073E+00  0.169550306228591E+00
  0.425779291565073E+00 -0.309016994374947E+00  0.812985948089114E-01