 VARIABLES =  $x$  (d)
 ZONE I=         676 ,DATAPACKING=POINT
 -0.100000000000000E+01 -0.100000000000000E+01  0.000000000000000E+00
 -0.100000000000000E+01 -0.992114701314478E+00  0.000000000000000E+00
 -0.100000000000000E+01 -0.968583161128631E+00  0.000000000000000E+00
 -0.100000000000000E+01 -0.929776485888251E+00  0.000000000000000E+00
 -0.100000000000000E+01 -0.876306680043864E+00  0.000000000000000E+00
 -0.100000000000000E+01 -0.809016994374947E+00  0.000000000000000E+00
 -0.100000000000000E+01 -0.728968627421411E+00  0.000000000000000E+00
 -0.100000000000000E+01 -0.637423989748690E+00  0.000000000000000E+00
 -0.100000000000000E+01 -0.535826794978997E+00  0.000000000000000E+00
 -0.100000000000000E+01 -0.425779291565073E+00  0.000000000000000E+00
 -0.100000000000000E+01 -0.309016994374947E+00  0.000000000000000E+00
 -0.100000000000000E+01 -0.187381314585725E+00  0.000000000000000E+00
 -0.100000000000000E+01 -0.627905195293134E-01  0.000000000000000E+00
 -0.100000000000000E+01  0.627905195293134E-01  0.000000000000000E+00
 -0.100000000000000E+01  0.187381314585725E+00  0.000000000000000E+00
 -0.100000000000000E+01  0.309016994374947E+00  0.000000000000000E+00
 -0.100000000000000E+01  0.425779291565073E+00  0.000000000000000E+00
 -0.100000000000000E+01  0.535826794978997E+00  0.000000000000000E+00
 -0.100000000000000E+01  0.637423989748690E+00  0.000000000000000E+00
 -0.100000000000000E+01  0.728968627421411E+00  0.000000000000000E+00
 -0.100000000000000E+01  0.809016994374947E+00  0.000000000000000E+00
 -0.100000000000000E+01  0.876306680043864E+00  0.000000000000000E+00
 -0.100000000000000E+01  0.929776485888251E+00  0.000000000000000E+00
 -0.100000000000000E+01  0.968583161128631E+00  0.000000000000000E+00
 -0.100000000000000E+01  0.992114701314478E+00  0.000000000000000E+00
 -0.100000000000000E+01  0.100000000000000E+01  0.000000000000000E+00
 -0.992114701314478E+00 -0.100000000000000E+01  0.000000000000000E+00
 -0.992114701314478E+00 -0.992114701314478E+00 -0.185593273663599E-03
 -0.992114701314478E+00 -0.968583161128631E+00 -0.738506977768893E-03
 -0.992114701314478E+00 -0.929776485888251E+00 -0.164124087287847E-02
 -0.992114701314478E+00 -0.876306680043864E+00 -0.284080812269642E-02
 -0.992114701314478E+00 -0.809016994374947E+00 -0.419232539607714E-02
 -0.992114701314478E+00 -0.728968627421411E+00 -0.535846078658749E-02
 -0.992114701314478E+00 -0.637423989748690E+00 -0.577535868400974E-02
 -0.992114701314478E+00 -0.535826794978997E+00 -0.493846940330594E-02
 -0.992114701314478E+00 -0.425779291565073E+00 -0.296462187043158E-02
 -0.992114701314478E+00 -0.309016994374947E+00 -0.716219359308672E-03
 -0.992114701314478E+00 -0.187381314585725E+00  0.915077176908904E-03
 -0.992114701314478E+00 -0.627905195293134E-01  0.166284782353918E-02
 -0.992114701314478E+00  0.627905195293134E-01  0.166284782353917E-02
 -0.992114701314478E+00  0.187381314585725E+00  0.915077176908809E-03
 -0.992114701314478E+00  0.309016994374947E+00 -0.716219359308548E-03
 -0.992114701314478E+00  0.425779291565073E+00 -0.296462187043203E-02
 -0.992114701314478E+00  0.535826794978997E+00 -0.493846940330597E-02
 -0.992114701314478E+00  0.637423989748690E+00 -0.577535868401015E-02
 -0.992114701314478E+00  0.728968627421411E+00 -0.535846078658759E-02
 -0.992114701314478E+00  0.809016994374947E+00 -0.419232539607746E-02
 -0.992114701314478E+00  0.876306680043864E+00 -0.284080812269655E-02
 -0.992114701314478E+00  0.929776485888251E+00 -0.164124087287831E-02
 -0.992114701314478E+00  0.968583161128631E+00 -0.738506977768608E-03
 -0.992114701314478E+00  0.992114701314478E+00 -0.185593273663422E-03
 -0.992114701314478E+00  0.100000000000000E+01  0.000000000000000E+00
 -0.968583161128631E+00 -0.100000000000000E+01  0.000000000000000E+00
 -0.968583161128631E+00 -0.992114701314478E+00 -0.738506977768893E-03
 -0.968583161128631E+00 -0.968583161128631E+00 -0.293866146365880E-02
 -0.968583161128631E+00 -0.929776485888251E+00 -0.653116336301997E-02
 -0.968583161128631E+00 -0.876306680043864E+00 -0.113063419423775E-01
 -0.968583161128631E+00 -0.809016994374947E+00 -0.166904877639779E-01
 -0.968583161128631E+00 -0.728968627421411E+00 -0.213456163485151E-01
 -0.968583161128631E+00 -0.637423989748690E+00 -0.230303918639958E-01
 -0.968583161128631E+00 -0.535826794978997E+00 -0.197297436806387E-01
 -0.968583161128631E+00 -0.425779291565073E+00 -0.118888057872378E-01
 -0.968583161128631E+00 -0.309016994374947E+00 -0.292258775951561E-02
 -0.968583161128631E+00 -0.187381314585725E+00  0.361233812960553E-02
 -0.968583161128631E+00 -0.627905195293134E-01  0.662382509359371E-02
 -0.968583161128631E+00  0.627905195293134E-01  0.662382509359353E-02
 -0.968583161128631E+00  0.187381314585725E+00  0.361233812960549E-02
 -0.968583161128631E+00  0.309016994374947E+00 -0.292258775951533E-02
 -0.968583161128631E+00  0.425779291565073E+00 -0.118888057872389E-01
 -0.968583161128631E+00  0.535826794978997E+00 -0.197297436806394E-01
 -0.968583161128631E+00  0.637423989748690E+00 -0.230303918639982E-01
 -0.968583161128631E+00  0.728968627421411E+00 -0.213456163485162E-01
 -0.968583161128631E+00  0.809016994374947E+00 -0.166904877639794E-01
 -0.968583161128631E+00  0.876306680043864E+00 -0.113063419423781E-01
 -0.968583161128631E+00  0.929776485888251E+00 -0.653116336301965E-02
 -0.968583161128631E+00  0.968583161128631E+00 -0.293866146365818E-02
 -0.968583161128631E+00  0.992114701314478E+00 -0.738506977768590E-03
 -0.968583161128631E+00  0.100000000000000E+01  0.000000000000000E+00
 -0.929776485888251E+00 -0.100000000000000E+01  0.000000000000000E+00
 -0.929776485888251E+00 -0.992114701314478E+00 -0.164124087287847E-02
 -0.929776485888251E+00 -0.968583161128631E+00 -0.653116336301997E-02
 -0.929776485888251E+00 -0.929776485888251E+00 -0.145188342931413E-01
 -0.929776485888251E+00 -0.876306680043864E+00 -0.251498179919535E-01
 -0.929776485888251E+00 -0.809016994374947E+00 -0.371765590741478E-01
 -0.929776485888251E+00 -0.728968627421411E+00 -0.476694645231468E-01
 -0.929776485888251E+00 -0.637423989748690E+00 -0.516796686449226E-01
 -0.929776485888251E+00 -0.535826794978997E+00 -0.446865523190057E-01
 -0.929776485888251E+00 -0.425779291565073E+00 -0.275429562088192E-01
 -0.929776485888251E+00 -0.309016994374947E+00 -0.772204608543634E-02
 -0.929776485888251E+00 -0.187381314585725E+00  0.684231749062879E-02
 -0.929776485888251E+00 -0.627905195293134E-01  0.135988757942070E-01
 -0.929776485888251E+00  0.627905195293134E-01  0.135988757942070E-01
 -0.929776485888251E+00  0.187381314585725E+00  0.684231749062891E-02
 -0.929776485888251E+00  0.309016994374947E+00 -0.772204608543655E-02
 -0.929776485888251E+00  0.425779291565073E+00 -0.275429562088211E-01
 -0.929776485888251E+00  0.535826794978997E+00 -0.446865523190084E-01
 -0.929776485888251E+00  0.637423989748690E+00 -0.516796686449275E-01
 -0.929776485888251E+00  0.728968627421411E+00 -0.476694645231506E-01
 -0.929776485888251E+00  0.809016994374947E+00 -0.371765590741511E-01
 -0.929776485888251E+00  0.876306680043864E+00 -0.251498179919552E-01
 -0.929776485888251E+00  0.929776485888251E+00 -0.145188342931417E-01
 -0.929776485888251E+00  0.968583161128631E+00 -0.653116336301963E-02
 -0.929776485888251E+00  0.992114701314478E+00 -0.164124087287829E-02
 -0.929776485888251E+00  0.100000000000000E+01  0.000000000000000E+00
 -0.876306680043864E+00 -0.100000000000000E+01  0.000000000000000E+00
 -0.876306680043864E+00 -0.992114701314478E+00 -0.284080812269642E-02
 -0.876306680043864E+00 -0.968583161128631E+00 -0.113063419423775E-01
 -0.876306680043864E+00 -0.929776485888251E+00 -0.251498179919535E-01
 -0.876306680043864E+00 -0.876306680043864E+00 -0.436384189602161E-01
 -0.876306680043864E+00 -0.809016994374947E+00 -0.647388119131385E-01
 -0.876306680043864E+00 -0.728968627421411E+00 -0.835772778570081E-01
 -0.876306680043864E+00 -0.637423989748690E+00 -0.917248996077819E-01
 -0.876306680043864E+00 -0.535826794978997E+00 -0.811540106115586E-01
 -0.876306680043864E+00 -0.425779291565073E+00 -0.527198789895355E-01
 -0.876306680043864E+00 -0.309016994374947E+00 -0.188359280108274E-01
 -0.876306680043864E+00 -0.187381314585725E+00  0.661999745039507E-02
 -0.876306680043864E+00 -0.627905195293134E-01  0.186470142368780E-01
 -0.876306680043864E+00  0.627905195293134E-01  0.186470142368783E-01
 -0.876306680043864E+00  0.187381314585725E+00  0.661999745039533E-02
 -0.876306680043864E+00  0.309016994374947E+00 -0.188359280108283E-01
 -0.876306680043864E+00  0.425779291565073E+00 -0.527198789895381E-01
 -0.876306680043864E+00  0.535826794978997E+00 -0.811540106115642E-01
 -0.876306680043864E+00  0.637423989748690E+00 -0.917248996077886E-01
 -0.876306680043864E+00  0.728968627421411E+00 -0.835772778570151E-01
 -0.876306680043864E+00  0.809016994374947E+00 -0.647388119131436E-01
 -0.876306680043864E+00  0.876306680043864E+00 -0.436384189602195E-01
 -0.876306680043864E+00  0.929776485888251E+00 -0.251498179919548E-01
 -0.876306680043864E+00  0.968583161128631E+00 -0.113063419423779E-01
 -0.876306680043864E+00  0.992114701314478E+00 -0.284080812269649E-02
 -0.876306680043864E+00  0.100000000000000E+01  0.000000000000000E+00
 -0.809016994374947E+00 -0.100000000000000E+01  0.000000000000000E+00
 -0.809016994374947E+00 -0.992114701314478E+00 -0.419232539607714E-02
 -0.809016994374947E+00 -0.968583161128631E+00 -0.166904877639779E-01
 -0.809016994374947E+00 -0.929776485888251E+00 -0.371765590741478E-01
 -0.809016994374947E+00 -0.876306680043864E+00 -0.647388119131385E-01
 -0.809016994374947E+00 -0.809016994374947E+00 -0.967637640236148E-01
 -0.809016994374947E+00 -0.728968627421411E+00 -0.126637891457318E+00
 -0.809016994374947E+00 -0.637423989748690E+00 -0.142280741935441E+00
 -0.809016994374947E+00 -0.535826794978997E+00 -0.131184437135825E+00
 -0.809016994374947E+00 -0.425779291565073E+00 -0.927780531203726E-01
 -0.809016994374947E+00 -0.309016994374947E+00 -0.439173228144700E-01
 -0.809016994374947E+00 -0.187381314585725E+00 -0.557545647671791E-02
 -0.809016994374947E+00 -0.627905195293134E-01  0.131546329582031E-01
 -0.809016994374947E+00  0.627905195293134E-01  0.131546329582033E-01
 -0.809016994374947E+00  0.187381314585725E+00 -0.557545647671755E-02
 -0.809016994374947E+00  0.309016994374947E+00 -0.439173228144717E-01
 -0.809016994374947E+00  0.425779291565073E+00 -0.927780531203764E-01
 -0.809016994374947E+00  0.535826794978997E+00 -0.131184437135832E+00
 -0.809016994374947E+00  0.637423989748690E+00 -0.142280741935449E+00
 -0.809016994374947E+00  0.728968627421411E+00 -0.126637891457327E+00
 -0.809016994374947E+00  0.809016994374947E+00 -0.967637640236226E-01
 -0.809016994374947E+00  0.876306680043864E+00 -0.647388119131437E-01
 -0.809016994374947E+00  0.929776485888251E+00 -0.371765590741509E-01
 -0.809016994374947E+00  0.968583161128631E+00 -0.166904877639789E-01
 -0.809016994374947E+00  0.992114701314478E+00 -0.419232539607737E-02
 -0.809016994374947E+00  0.100000000000000E+01  0.000000000000000E+00
 -0.728968627421411E+00 -0.100000000000000E+01  0.000000000000000E+00
 -0.728968627421411E+00 -0.992114701314478E+00 -0.535846078658749E-02
 -0.728968627421411E+00 -0.968583161128631E+00 -0.213456163485151E-01
 -0.728968627421411E+00 -0.929776485888251E+00 -0.476694645231468E-01
 -0.728968627421411E+00 -0.876306680043864E+00 -0.835772778570081E-01
 -0.728968627421411E+00 -0.809016994374947E+00 -0.126637891457318E+00
 -0.728968627421411E+00 -0.728968627421411E+00 -0.169676955499029E+00
 -0.728968627421411E+00 -0.637423989748690E+00 -0.197907343286053E+00
 -0.728968627421411E+00 -0.535826794978997E+00 -0.193679352678349E+00
 -0.728968627421411E+00 -0.425779291565073E+00 -0.152184682605008E+00
 -0.728968627421411E+00 -0.309016994374947E+00 -0.919444458644602E-01
 -0.728968627421411E+00 -0.187381314585725E+00 -0.410557972695137E-01
 -0.728968627421411E+00 -0.627905195293134E-01 -0.149175866823772E-01
 -0.728968627421411E+00  0.627905195293134E-01 -0.149175866823770E-01
 -0.728968627421411E+00  0.187381314585725E+00 -0.410557972695142E-01
 -0.728968627421411E+00  0.309016994374947E+00 -0.919444458644624E-01
 -0.728968627421411E+00  0.425779291565073E+00 -0.152184682605014E+00
 -0.728968627421411E+00  0.535826794978997E+00 -0.193679352678357E+00
 -0.728968627421411E+00  0.637423989748690E+00 -0.197907343286063E+00
 -0.728968627421411E+00  0.728968627421411E+00 -0.169676955499040E+00
 -0.728968627421411E+00  0.809016994374947E+00 -0.126637891457328E+00
 -0.728968627421411E+00  0.876306680043864E+00 -0.835772778570158E-01
 -0.728968627421411E+00  0.929776485888251E+00 -0.476694645231514E-01
 -0.728968627421411E+00  0.968583161128631E+00 -0.213456163485167E-01
 -0.728968627421411E+00  0.992114701314478E+00 -0.535846078658774E-02
 -0.728968627421411E+00  0.100000000000000E+01  0.000000000000000E+00
 -0.637423989748690E+00 -0.100000000000000E+01  0.000000000000000E+00
 -0.637423989748690E+00 -0.992114701314478E+00 -0.577535868400974E-02
 -0.637423989748690E+00 -0.968583161128631E+00 -0.230303918639958E-01
 -0.637423989748690E+00 -0.929776485888251E+00 -0.516796686449226E-01
 -0.637423989748690E+00 -0.876306680043864E+00 -0.917248996077819E-01
 -0.637423989748690E+00 -0.809016994374947E+00 -0.142280741935441E+00
 -0.637423989748690E+00 -0.728968627421411E+00 -0.197907343286053E+00
 -0.637423989748690E+00 -0.637423989748690E+00 -0.243561485833573E+00
 -0.637423989748690E+00 -0.535826794978997E+00 -0.256813552480608E+00
 -0.637423989748690E+00 -0.425779291565073E+00 -0.225059565394113E+00
 -0.637423989748690E+00 -0.309016994374947E+00 -0.163243086124137E+00
 -0.637423989748690E+00 -0.187381314585725E+00 -0.104446290846385E+00
 -0.637423989748690E+00 -0.627905195293134E-01 -0.721333014501690E-01
 -0.637423989748690E+00  0.627905195293134E-01 -0.721333014501689E-01
 -0.637423989748690E+00  0.187381314585725E+00 -0.104446290846387E+00
 -0.637423989748690E+00  0.309016994374947E+00 -0.163243086124139E+00
 -0.637423989748690E+00  0.425779291565073E+00 -0.225059565394119E+00
 -0.637423989748690E+00  0.535826794978997E+00 -0.256813552480619E+00
 -0.637423989748690E+00  0.637423989748690E+00 -0.243561485833584E+00
 -0.637423989748690E+00  0.728968627421411E+00 -0.197907343286065E+00
 -0.637423989748690E+00  0.809016994374947E+00 -0.142280741935452E+00
 -0.637423989748690E+00  0.876306680043864E+00 -0.917248996077912E-01
 -0.637423989748690E+00  0.929776485888251E+00 -0.516796686449294E-01
 -0.637423989748690E+00  0.968583161128631E+00 -0.230303918639993E-01
 -0.637423989748690E+00  0.992114701314478E+00 -0.577535868401053E-02
 -0.637423989748690E+00  0.100000000000000E+01  0.000000000000000E+00
 -0.535826794978997E+00 -0.100000000000000E+01  0.000000000000000E+00
 -0.535826794978997E+00 -0.992114701314478E+00 -0.493846940330594E-02
 -0.535826794978997E+00 -0.968583161128631E+00 -0.197297436806387E-01
 -0.535826794978997E+00 -0.929776485888251E+00 -0.446865523190057E-01
 -0.535826794978997E+00 -0.876306680043864E+00 -0.811540106115586E-01
 -0.535826794978997E+00 -0.809016994374947E+00 -0.131184437135825E+00
 -0.535826794978997E+00 -0.728968627421411E+00 -0.193679352678349E+00
 -0.535826794978997E+00 -0.637423989748690E+00 -0.256813552480608E+00
 -0.535826794978997E+00 -0.535826794978997E+00 -0.295518811440246E+00
 -0.535826794978997E+00 -0.425779291565073E+00 -0.287181011077309E+00
 -0.535826794978997E+00 -0.309016994374947E+00 -0.237202724049164E+00
 -0.535826794978997E+00 -0.187381314585725E+00 -0.179104207587862E+00
 -0.535826794978997E+00 -0.627905195293134E-01 -0.144185292826779E+00
 -0.535826794978997E+00  0.627905195293134E-01 -0.144185292826778E+00
 -0.535826794978997E+00  0.187381314585725E+00 -0.179104207587863E+00
 -0.535826794978997E+00  0.309016994374947E+00 -0.237202724049168E+00
 -0.535826794978997E+00  0.425779291565073E+00 -0.287181011077316E+00
 -0.535826794978997E+00  0.535826794978997E+00 -0.295518811440257E+00
 -0.535826794978997E+00  0.637423989748690E+00 -0.256813552480621E+00
 -0.535826794978997E+00  0.728968627421411E+00 -0.193679352678361E+00
 -0.535826794978997E+00  0.809016994374947E+00 -0.131184437135836E+00
 -0.535826794978997E+00  0.876306680043864E+00 -0.811540106115672E-01
 -0.535826794978997E+00  0.929776485888251E+00 -0.446865523190108E-01
 -0.535826794978997E+00  0.968583161128631E+00 -0.197297436806404E-01
 -0.535826794978997E+00  0.992114701314478E+00 -0.493846940330604E-02
 -0.535826794978997E+00  0.100000000000000E+01  0.000000000000000E+00
 -0.425779291565073E+00 -0.100000000000000E+01  0.000000000000000E+00
 -0.425779291565073E+00 -0.992114701314478E+00 -0.296462187043158E-02
 -0.425779291565073E+00 -0.968583161128631E+00 -0.118888057872378E-01
 -0.425779291565073E+00 -0.929776485888251E+00 -0.275429562088192E-01
 -0.425779291565073E+00 -0.876306680043864E+00 -0.527198789895355E-01
 -0.425779291565073E+00 -0.809016994374947E+00 -0.927780531203726E-01
 -0.425779291565073E+00 -0.728968627421411E+00 -0.152184682605008E+00
 -0.425779291565073E+00 -0.637423989748690E+00 -0.225059565394113E+00
 -0.425779291565073E+00 -0.535826794978997E+00 -0.287181011077309E+00
 -0.425779291565073E+00 -0.425779291565073E+00 -0.307119300452419E+00
 -0.425779291565073E+00 -0.309016994374947E+00 -0.277490875646589E+00
 -0.425779291565073E+00 -0.187381314585725E+00 -0.227355958855893E+00
 -0.425779291565073E+00 -0.627905195293134E-01 -0.193470094498992E+00
 -0.425779291565073E+00  0.627905195293134E-01 -0.193470094498991E+00
 -0.425779291565073E+00  0.187381314585725E+00 -0.227355958855894E+00
 -0.425779291565073E+00  0.309016994374947E+00 -0.277490875646593E+00
 -0.425779291565073E+00  0.425779291565073E+00 -0.307119300452426E+00
 -0.425779291565073E+00  0.535826794978997E+00 -0.287181011077319E+00
 -0.425779291565073E+00  0.637423989748690E+00 -0.225059565394123E+00
 -0.425779291565073E+00  0.728968627421411E+00 -0.152184682605020E+00
 -0.425779291565073E+00  0.809016994374947E+00 -0.927780531203821E-01
 -0.425779291565073E+00  0.876306680043864E+00 -0.527198789895422E-01
 -0.425779291565073E+00  0.929776485888251E+00 -0.275429562088235E-01
 -0.425779291565073E+00  0.968583161128631E+00 -0.118888057872398E-01
 -0.425779291565073E+00  0.992114701314478E+00 -0.296462187043212E-02
 -0.425779291565073E+00  0.100000000000000E+01  0.000000000000000E+00
 -0.309016994374947E+00 -0.100000000000000E+01  0.000000000000000E+00
 -0.309016994374947E+00 -0.992114701314478E+00 -0.716219359308672E-03
 -0.309016994374947E+00 -0.968583161128631E+00 -0.292258775951561E-02
 -0.309016994374947E+00 -0.929776485888251E+00 -0.772204608543634E-02
 -0.309016994374947E+00 -0.876306680043864E+00 -0.188359280108274E-01
 -0.309016994374947E+00 -0.809016994374947E+00 -0.439173228144700E-01
 -0.309016994374947E+00 -0.728968627421411E+00 -0.919444458644602E-01
 -0.309016994374947E+00 -0.637423989748690E+00 -0.163243086124137E+00
 -0.309016994374947E+00 -0.535826794978997E+00 -0.237202724049164E+00
 -0.309016994374947E+00 -0.425779291565073E+00 -0.277490875646589E+00
 -0.309016994374947E+00 -0.309016994374947E+00 -0.265348827234718E+00
 -0.309016994374947E+00 -0.187381314585725E+00 -0.223273874957137E+00
 -0.309016994374947E+00 -0.627905195293134E-01 -0.190943219478466E+00
 -0.309016994374947E+00  0.627905195293134E-01 -0.190943219478467E+00
 -0.309016994374947E+00  0.187381314585725E+00 -0.223273874957138E+00
 -0.309016994374947E+00  0.309016994374947E+00 -0.265348827234722E+00
 -0.309016994374947E+00  0.425779291565073E+00 -0.277490875646596E+00
 -0.309016994374947E+00  0.535826794978997E+00 -0.237202724049173E+00
 -0.309016994374947E+00  0.637423989748690E+00 -0.163243086124146E+00
 -0.309016994374947E+00  0.728968627421411E+00 -0.919444458644697E-01
 -0.309016994374947E+00  0.809016994374947E+00 -0.439173228144780E-01
 -0.309016994374947E+00  0.876306680043864E+00 -0.188359280108329E-01
 -0.309016994374947E+00  0.929776485888251E+00 -0.772204608543828E-02
 -0.309016994374947E+00  0.968583161128631E+00 -0.292258775951588E-02
 -0.309016994374947E+00  0.992114701314478E+00 -0.716219359308762E-03
 -0.309016994374947E+00  0.100000000000000E+01  0.000000000000000E+00
 -0.187381314585725E+00 -0.100000000000000E+01  0.000000000000000E+00
 -0.187381314585725E+00 -0.992114701314478E+00  0.915077176908904E-03
 -0.187381314585725E+00 -0.968583161128631E+00  0.361233812960553E-02
 -0.187381314585725E+00 -0.929776485888251E+00  0.684231749062879E-02
 -0.187381314585725E+00 -0.876306680043864E+00  0.661999745039507E-02
 -0.187381314585725E+00 -0.809016994374947E+00 -0.557545647671791E-02
 -0.187381314585725E+00 -0.728968627421411E+00 -0.410557972695137E-01
 -0.187381314585725E+00 -0.637423989748690E+00 -0.104446290846385E+00
 -0.187381314585725E+00 -0.535826794978997E+00 -0.179104207587862E+00
 -0.187381314585725E+00 -0.425779291565073E+00 -0.227355958855893E+00
 -0.187381314585725E+00 -0.309016994374947E+00 -0.223273874957137E+00
 -0.187381314585725E+00 -0.187381314585725E+00 -0.184127313098401E+00
 -0.187381314585725E+00 -0.627905195293134E-01 -0.151336300542623E+00
 -0.187381314585725E+00  0.627905195293134E-01 -0.151336300542623E+00
 -0.187381314585725E+00  0.187381314585725E+00 -0.184127313098402E+00
 -0.187381314585725E+00  0.309016994374947E+00 -0.223273874957141E+00
 -0.187381314585725E+00  0.425779291565073E+00 -0.227355958855900E+00
 -0.187381314585725E+00  0.535826794978997E+00 -0.179104207587872E+00
 -0.187381314585725E+00  0.637423989748690E+00 -0.104446290846395E+00
 -0.187381314585725E+00  0.728968627421411E+00 -0.410557972695221E-01
 -0.187381314585725E+00  0.809016994374947E+00 -0.557545647672435E-02
 -0.187381314585725E+00  0.876306680043864E+00  0.661999745038996E-02
 -0.187381314585725E+00  0.929776485888251E+00  0.684231749062614E-02
 -0.187381314585725E+00  0.968583161128631E+00  0.361233812960453E-02
 -0.187381314585725E+00  0.992114701314478E+00  0.915077176908642E-03
 -0.187381314585725E+00  0.100000000000000E+01  0.000000000000000E+00
 -0.627905195293134E-01 -0.100000000000000E+01  0.000000000000000E+00
 -0.627905195293134E-01 -0.992114701314478E+00  0.166284782353918E-02
 -0.627905195293134E-01 -0.968583161128631E+00  0.662382509359371E-02
 -0.627905195293134E-01 -0.929776485888251E+00  0.135988757942070E-01
 -0.627905195293134E-01 -0.876306680043864E+00  0.186470142368780E-01
 -0.627905195293134E-01 -0.809016994374947E+00  0.131546329582031E-01
 -0.627905195293134E-01 -0.728968627421411E+00 -0.149175866823772E-01
 -0.627905195293134E-01 -0.637423989748690E+00 -0.721333014501690E-01
 -0.627905195293134E-01 -0.535826794978997E+00 -0.144185292826779E+00
 -0.627905195293134E-01 -0.425779291565073E+00 -0.193470094498992E+00
 -0.627905195293134E-01 -0.309016994374947E+00 -0.190943219478466E+00
 -0.627905195293134E-01 -0.187381314585725E+00 -0.151336300542623E+00
 -0.627905195293134E-01 -0.627905195293134E-01 -0.117166042211084E+00
 -0.627905195293134E-01  0.627905195293134E-01 -0.117166042211083E+00
 -0.627905195293134E-01  0.187381314585725E+00 -0.151336300542623E+00
 -0.627905195293134E-01  0.309016994374947E+00 -0.190943219478471E+00
 -0.627905195293134E-01  0.425779291565073E+00 -0.193470094498998E+00
 -0.627905195293134E-01  0.535826794978997E+00 -0.144185292826787E+00
 -0.627905195293134E-01  0.637423989748690E+00 -0.721333014501770E-01
 -0.627905195293134E-01  0.728968627421411E+00 -0.149175866823857E-01
 -0.627905195293134E-01  0.809016994374947E+00  0.131546329581968E-01
 -0.627905195293134E-01  0.876306680043864E+00  0.186470142368735E-01
 -0.627905195293134E-01  0.929776485888251E+00  0.135988757942048E-01
 -0.627905195293134E-01  0.968583161128631E+00  0.662382509359265E-02
 -0.627905195293134E-01  0.992114701314478E+00  0.166284782353891E-02
 -0.627905195293134E-01  0.100000000000000E+01  0.000000000000000E+00
  0.627905195293134E-01 -0.100000000000000E+01  0.000000000000000E+00
  0.627905195293134E-01 -0.992114701314478E+00  0.166284782353917E-02
  0.627905195293134E-01 -0.968583161128631E+00  0.662382509359353E-02
  0.627905195293134E-01 -0.929776485888251E+00  0.135988757942070E-01
  0.627905195293134E-01 -0.876306680043864E+00  0.186470142368783E-01
  0.627905195293134E-01 -0.809016994374947E+00  0.131546329582033E-01
  0.627905195293134E-01 -0.728968627421411E+00 -0.149175866823770E-01
  0.627905195293134E-01 -0.637423989748690E+00 -0.721333014501689E-01
  0.627905195293134E-01 -0.535826794978997E+00 -0.144185292826778E+00
  0.627905195293134E-01 -0.425779291565073E+00 -0.193470094498991E+00
  0.627905195293134E-01 -0.309016994374947E+00 -0.190943219478467E+00
  0.627905195293134E-01 -0.187381314585725E+00 -0.151336300542623E+00
  0.627905195293134E-01 -0.627905195293134E-01 -0.117166042211083E+00
  0.627905195293134E-01  0.627905195293134E-01 -0.117166042211083E+00
  0.627905195293134E-01  0.187381314585725E+00 -0.151336300542623E+00
  0.627905195293134E-01  0.309016994374947E+00 -0.190943219478470E+00
  0.627905195293134E-01  0.425779291565073E+00 -0.193470094498997E+00
  0.627905195293134E-01  0.535826794978997E+00 -0.144185292826787E+00
  0.627905195293134E-01  0.637423989748690E+00 -0.721333014501769E-01
  0.627905195293134E-01  0.728968627421411E+00 -0.149175866823850E-01
  0.627905195293134E-01  0.809016994374947E+00  0.131546329581969E-01
  0.627905195293134E-01  0.876306680043864E+00  0.186470142368738E-01
  0.627905195293134E-01  0.929776485888251E+00  0.135988757942048E-01
  0.627905195293134E-01  0.968583161128631E+00  0.662382509359267E-02
  0.627905195293134E-01  0.992114701314478E+00  0.166284782353891E-02
  0.627905195293134E-01  0.100000000000000E+01  0.000000000000000E+00
  0.187381314585725E+00 -0.100000000000000E+01  0.000000000000000E+00
  0.187381314585725E+00 -0.992114701314478E+00  0.915077176908809E-03
  0.187381314585725E+00 -0.968583161128631E+00  0.361233812960549E-02
  0.187381314585725E+00 -0.929776485888251E+00  0.684231749062891E-02
  0.187381314585725E+00 -0.876306680043864E+00  0.661999745039533E-02
  0.187381314585725E+00 -0.809016994374947E+00 -0.557545647671755E-02
  0.187381314585725E+00 -0.728968627421411E+00 -0.410557972695142E-01
  0.187381314585725E+00 -0.637423989748690E+00 -0.104446290846387E+00
  0.187381314585725E+00 -0.535826794978997E+00 -0.179104207587863E+00
  0.187381314585725E+00 -0.425779291565073E+00 -0.227355958855894E+00
  0.187381314585725E+00 -0.309016994374947E+00 -0.223273874957138E+00
  0.187381314585725E+00 -0.187381314585725E+00 -0.184127313098402E+00
  0.187381314585725E+00 -0.627905195293134E-01 -0.151336300542623E+00
  0.187381314585725E+00  0.627905195293134E-01 -0.151336300542623E+00
  0.187381314585725E+00  0.187381314585725E+00 -0.184127313098402E+00
  0.187381314585725E+00  0.309016994374947E+00 -0.223273874957142E+00
  0.187381314585725E+00  0.425779291565073E+00 -0.227355958855900E+00
  0.187381314585725E+00  0.535826794978997E+00 -0.179104207587872E+00
  0.187381314585725E+00  0.637423989748690E+00 -0.104446290846396E+00
  0.187381314585725E+00  0.728968627421411E+00 -0.410557972695228E-01
  0.187381314585725E+00  0.809016994374947E+00 -0.557545647672469E-02
  0.187381314585725E+00  0.876306680043864E+00  0.661999745039031E-02
  0.187381314585725E+00  0.929776485888251E+00  0.684231749062649E-02
  0.187381314585725E+00  0.968583161128631E+00  0.361233812960464E-02
  0.187381314585725E+00  0.992114701314478E+00  0.915077176908633E-03
  0.187381314585725E+00  0.100000000000000E+01  0.000000000000000E+00
  0.309016994374947E+00 -0.100000000000000E+01  0.000000000000000E+00
  0.309016994374947E+00 -0.992114701314478E+00 -0.716219359308548E-03
  0.309016994374947E+00 -0.968583161128631E+00 -0.292258775951533E-02
  0.309016994374947E+00 -0.929776485888251E+00 -0.772204608543655E-02
  0.309016994374947E+00 -0.876306680043864E+00 -0.188359280108283E-01
  0.309016994374947E+00 -0.809016994374947E+00 -0.439173228144717E-01
  0.309016994374947E+00 -0.728968627421411E+00 -0.919444458644624E-01
  0.309016994374947E+00 -0.637423989748690E+00 -0.163243086124139E+00
  0.309016994374947E+00 -0.535826794978997E+00 -0.237202724049168E+00
  0.309016994374947E+00 -0.425779291565073E+00 -0.277490875646593E+00
  0.309016994374947E+00 -0.309016994374947E+00 -0.265348827234722E+00
  0.309016994374947E+00 -0.187381314585725E+00 -0.223273874957141E+00
  0.309016994374947E+00 -0.627905195293134E-01 -0.190943219478471E+00
  0.309016994374947E+00  0.627905195293134E-01 -0.190943219478470E+00
  0.309016994374947E+00  0.187381314585725E+00 -0.223273874957142E+00
  0.309016994374947E+00  0.309016994374947E+00 -0.265348827234726E+00
  0.309016994374947E+00  0.425779291565073E+00 -0.277490875646601E+00
  0.309016994374947E+00  0.535826794978997E+00 -0.237202724049177E+00
  0.309016994374947E+00  0.637423989748690E+00 -0.163243086124149E+00
  0.309016994374947E+00  0.728968627421411E+00 -0.919444458644718E-01
  0.309016994374947E+00  0.809016994374947E+00 -0.439173228144800E-01
  0.309016994374947E+00  0.876306680043864E+00 -0.188359280108340E-01
  0.309016994374947E+00  0.929776485888251E+00 -0.772204608543932E-02
  0.309016994374947E+00  0.968583161128631E+00 -0.292258775951659E-02
  0.309016994374947E+00  0.992114701314478E+00 -0.716219359309013E-03
  0.309016994374947E+00  0.100000000000000E+01  0.000000000000000E+00
  0.425779291565073E+00 -0.100000000000000E+01  0.000000000000000E+00
  0.425779291565073E+00 -0.992114701314478E+00 -0.296462187043203E-02
  0.425779291565073E+00 -0.968583161128631E+00 -0.118888057872389E-01
  0.425779291565073E+00 -0.929776485888251E+00 -0.275429562088211E-01
  0.425779291565073E+00 -0.876306680043864E+00 -0.527198789895381E-01
  0.425779291565073E+00 -0.809016994374947E+00 -0.927780531203764E-01
  0.425779291565073E+00 -0.728968627421411E+00 -0.152184682605014E+00
  0.425779291565073E+00 -0.637423989748690E+00 -0.225059565394119E+00
  0.425779291565073E+00 -0.535826794978997E+00 -0.287181011077316E+00
  0.425779291565073E+00 -0.425779291565073E+00 -0.307119300452426E+00
  0.425779291565073E+00 -0.309016994374947E+00 -0.277490875646596E+00