 VARIABLES =  $x$  (c)
 ZONE I=         676 ,DATAPACKING=POINT
 -0.100000000000000E+01 -0.100000000000000E+01  0.000000000000000E+00
 -0.100000000000000E+01 -0.992114701314478E+00  0.000000000000000E+00
 -0.100000000000000E+01 -0.968583161128631E+00  0.000000000000000E+00
 -0.100000000000000E+01 -0.929776485888251E+00  0.000000000000000E+00
 -0.100000000000000E+01 -0.876306680043864E+00  0.000000000000000E+00
 -0.100000000000000E+01 -0.809016994374947E+00  0.000000000000000E+00
 -0.100000000000000E+01 -0.728968627421411E+00  0.000000000000000E+00
 -0.100000000000000E+01 -0.637423989748690E+00  0.000000000000000E+00
 -0.100000000000000E+01 -0.535826794978997E+00  0.000000000000000E+00
 -0.100000000000000E+01 -0.425779291565073E+00  0.000000000000000E+00
 -0.100000000000000E+01 -0.309016994374947E+00  0.000000000000000E+00
 -0.100000000000000E+01 -0.187381314585725E+00  0.000000000000000E+00
 -0.100000000000000E+01 -0.627905195293134E-01  0.000000000000000E+00
 -0.100000000000000E+01  0.627905195293134E-01  0.000000000000000E+00
 -0.100000000000000E+01  0.187381314585725E+00  0.000000000000000E+00
 -0.100000000000000E+01  0.309016994374947E+00  0.000000000000000E+00
 -0.100000000000000E+01  0.425779291565073E+00  0.000000000000000E+00
 -0.100000000000000E+01  0.535826794978997E+00  0.000000000000000E+00
 -0.100000000000000E+01  0.637423989748690E+00  0.000000000000000E+00
 -0.100000000000000E+01  0.728968627421411E+00  0.000000000000000E+00
 -0.100000000000000E+01  0.809016994374947E+00  0.000000000000000E+00
 -0.100000000000000E+01  0.876306680043864E+00  0.000000000000000E+00
 -0.100000000000000E+01  0.929776485888251E+00  0.000000000000000E+00
 -0.100000000000000E+01  0.968583161128631E+00  0.000000000000000E+00
 -0.100000000000000E+01  0.992114701314478E+00  0.000000000000000E+00
 -0.100000000000000E+01  0.100000000000000E+01  0.000000000000000E+00
 -0.992114701314478E+00 -0.100000000000000E+01  0.000000000000000E+00
 -0.992114701314478E+00 -0.992114701314478E+00  0.246708380924816E-03
 -0.992114701314478E+00 -0.968583161128631E+00  0.976905937312221E-03
 -0.992114701314478E+00 -0.929776485888251E+00  0.212664060891895E-02
 -0.992114701314478E+00 -0.876306680043864E+00  0.349068920166647E-02
 -0.992114701314478E+00 -0.809016994374947E+00  0.464114480542483E-02
 -0.992114701314478E+00 -0.728968627421411E+00  0.496412695386170E-02
 -0.992114701314478E+00 -0.637423989748690E+00  0.391206600269194E-02
 -0.992114701314478E+00 -0.535826794978997E+00  0.139120212001526E-02
 -0.992114701314478E+00 -0.425779291565073E+00 -0.203942913097297E-02
 -0.992114701314478E+00 -0.309016994374947E+00 -0.542931601173000E-02
 -0.992114701314478E+00 -0.187381314585725E+00 -0.796591348683502E-02
 -0.992114701314478E+00 -0.627905195293134E-01 -0.926964354681073E-02
 -0.992114701314478E+00  0.627905195293134E-01 -0.926964354681076E-02
 -0.992114701314478E+00  0.187381314585725E+00 -0.796591348683499E-02
 -0.992114701314478E+00  0.309016994374947E+00 -0.542931601172997E-02
 -0.992114701314478E+00  0.425779291565073E+00 -0.203942913097289E-02
 -0.992114701314478E+00  0.535826794978997E+00  0.139120212001544E-02
 -0.992114701314478E+00  0.637423989748690E+00  0.391206600269213E-02
 -0.992114701314478E+00  0.728968627421411E+00  0.496412695386192E-02
 -0.992114701314478E+00  0.809016994374947E+00  0.464114480542493E-02
 -0.992114701314478E+00  0.876306680043864E+00  0.349068920166663E-02
 -0.992114701314478E+00  0.929776485888251E+00  0.212664060891908E-02
 -0.992114701314478E+00  0.968583161128631E+00  0.976905937312245E-03
 -0.992114701314478E+00  0.992114701314478E+00  0.246708380924826E-03
 -0.992114701314478E+00  0.100000000000000E+01  0.000000000000000E+00
 -0.968583161128631E+00 -0.100000000000000E+01  0.000000000000000E+00
 -0.968583161128631E+00 -0.992114701314478E+00  0.976905937312221E-03
 -0.968583161128631E+00 -0.968583161128631E+00  0.386820794126139E-02
 -0.968583161128631E+00 -0.929776485888251E+00  0.841987055588114E-02
 -0.968583161128631E+00 -0.876306680043864E+00  0.138166155549641E-01
 -0.968583161128631E+00 -0.809016994374947E+00  0.183595181134525E-01
 -0.968583161128631E+00 -0.728968627421411E+00  0.196151744532994E-01
 -0.968583161128631E+00 -0.637423989748690E+00  0.154217000404132E-01
 -0.968583161128631E+00 -0.535826794978997E+00  0.542472352780540E-02
 -0.968583161128631E+00 -0.425779291565073E+00 -0.814673485782546E-02
 -0.968583161128631E+00 -0.309016994374947E+00 -0.215312270800371E-01
 -0.968583161128631E+00 -0.187381314585725E+00 -0.315315550394008E-01
 -0.968583161128631E+00 -0.627905195293134E-01 -0.366665273621598E-01
 -0.968583161128631E+00  0.627905195293134E-01 -0.366665273621597E-01
 -0.968583161128631E+00  0.187381314585725E+00 -0.315315550394007E-01
 -0.968583161128631E+00  0.309016994374947E+00 -0.215312270800370E-01
 -0.968583161128631E+00  0.425779291565073E+00 -0.814673485782517E-02
 -0.968583161128631E+00  0.535826794978997E+00  0.542472352780609E-02
 -0.968583161128631E+00  0.637423989748690E+00  0.154217000404142E-01
 -0.968583161128631E+00  0.728968627421411E+00  0.196151744533002E-01
 -0.968583161128631E+00  0.809016994374947E+00  0.183595181134531E-01
 -0.968583161128631E+00  0.876306680043864E+00  0.138166155549647E-01
 -0.968583161128631E+00  0.929776485888251E+00  0.841987055588160E-02
 -0.968583161128631E+00  0.968583161128631E+00  0.386820794126154E-02
 -0.968583161128631E+00  0.992114701314478E+00  0.976905937312251E-03
 -0.968583161128631E+00  0.100000000000000E+01  0.000000000000000E+00
 -0.929776485888251E+00 -0.100000000000000E+01  0.000000000000000E+00
 -0.929776485888251E+00 -0.992114701314478E+00  0.212664060891895E-02
 -0.929776485888251E+00 -0.968583161128631E+00  0.841987055588114E-02
 -0.929776485888251E+00 -0.929776485888251E+00  0.183191450173537E-01
 -0.929776485888251E+00 -0.876306680043864E+00  0.300248226895953E-01
 -0.929776485888251E+00 -0.809016994374947E+00  0.397958747646911E-01
 -0.929776485888251E+00 -0.728968627421411E+00  0.423092634960953E-01
 -0.929776485888251E+00 -0.637423989748690E+00  0.329134398522534E-01
 -0.929776485888251E+00 -0.535826794978997E+00  0.109850644911295E-01
 -0.929776485888251E+00 -0.425779291565073E+00 -0.184913302933154E-01
 -0.929776485888251E+00 -0.309016994374947E+00 -0.473477124205878E-01
 -0.929776485888251E+00 -0.187381314585725E+00 -0.687866479314612E-01
 -0.929776485888251E+00 -0.627905195293134E-01 -0.797548022695564E-01
 -0.929776485888251E+00  0.627905195293134E-01 -0.797548022695562E-01
 -0.929776485888251E+00  0.187381314585725E+00 -0.687866479314607E-01
 -0.929776485888251E+00  0.309016994374947E+00 -0.473477124205874E-01
 -0.929776485888251E+00  0.425779291565073E+00 -0.184913302933146E-01
 -0.929776485888251E+00  0.535826794978997E+00  0.109850644911310E-01
 -0.929776485888251E+00  0.637423989748690E+00  0.329134398522556E-01
 -0.929776485888251E+00  0.728968627421411E+00  0.423092634960974E-01
 -0.929776485888251E+00  0.809016994374947E+00  0.397958747646928E-01
 -0.929776485888251E+00  0.876306680043864E+00  0.300248226895968E-01
 -0.929776485888251E+00  0.929776485888251E+00  0.183191450173546E-01
 -0.929776485888251E+00  0.968583161128631E+00  0.841987055588160E-02
 -0.929776485888251E+00  0.992114701314478E+00  0.212664060891908E-02
 -0.929776485888251E+00  0.100000000000000E+01  0.000000000000000E+00
 -0.876306680043864E+00 -0.100000000000000E+01  0.000000000000000E+00
 -0.876306680043864E+00 -0.992114701314478E+00  0.349068920166647E-02
 -0.876306680043864E+00 -0.968583161128631E+00  0.138166155549641E-01
 -0.876306680043864E+00 -0.929776485888251E+00  0.300248226895953E-01
 -0.876306680043864E+00 -0.876306680043864E+00  0.490530666176928E-01
 -0.876306680043864E+00 -0.809016994374947E+00  0.645750532447474E-01
 -0.876306680043864E+00 -0.728968627421411E+00  0.677413582541241E-01
 -0.876306680043864E+00 -0.637423989748690E+00  0.511543147138554E-01
 -0.876306680043864E+00 -0.535826794978997E+00  0.144328286996615E-01
 -0.876306680043864E+00 -0.425779291565073E+00 -0.336704364245960E-01
 -0.876306680043864E+00 -0.309016994374947E+00 -0.798388461503646E-01
 -0.876306680043864E+00 -0.187381314585725E+00 -0.113618369325519E+00
 -0.876306680043864E+00 -0.627905195293134E-01 -0.130728831968053E+00
 -0.876306680043864E+00  0.627905195293134E-01 -0.130728831968053E+00
 -0.876306680043864E+00  0.187381314585725E+00 -0.113618369325518E+00
 -0.876306680043864E+00  0.309016994374947E+00 -0.798388461503636E-01
 -0.876306680043864E+00  0.425779291565073E+00 -0.336704364245945E-01
 -0.876306680043864E+00  0.535826794978997E+00  0.144328286996637E-01
 -0.876306680043864E+00  0.637423989748690E+00  0.511543147138583E-01
 -0.876306680043864E+00  0.728968627421411E+00  0.677413582541273E-01
 -0.876306680043864E+00  0.809016994374947E+00  0.645750532447502E-01
 -0.876306680043864E+00  0.876306680043864E+00  0.490530666176951E-01
 -0.876306680043864E+00  0.929776485888251E+00  0.300248226895968E-01
 -0.876306680043864E+00  0.968583161128631E+00  0.138166155549647E-01
 -0.876306680043864E+00  0.992114701314478E+00  0.349068920166664E-02
 -0.876306680043864E+00  0.100000000000000E+01  0.000000000000000E+00
 -0.809016994374947E+00 -0.100000000000000E+01  0.000000000000000E+00
 -0.809016994374947E+00 -0.992114701314478E+00  0.464114480542483E-02
 -0.809016994374947E+00 -0.968583161128631E+00  0.183595181134525E-01
 -0.809016994374947E+00 -0.929776485888251E+00  0.397958747646911E-01
 -0.809016994374947E+00 -0.876306680043864E+00  0.645750532447474E-01
 -0.809016994374947E+00 -0.809016994374947E+00  0.837641137851812E-01
 -0.809016994374947E+00 -0.728968627421411E+00  0.852770887945408E-01
 -0.809016994374947E+00 -0.637423989748690E+00  0.599216665117771E-01
 -0.809016994374947E+00 -0.535826794978997E+00  0.894000350407487E-02
 -0.809016994374947E+00 -0.425779291565073E+00 -0.544852695771464E-01
 -0.809016994374947E+00 -0.309016994374947E+00 -0.112888610814654E+00
 -0.809016994374947E+00 -0.187381314585725E+00 -0.154224904467695E+00
 -0.809016994374947E+00 -0.627905195293134E-01 -0.174705259544681E+00
 -0.809016994374947E+00  0.627905195293134E-01 -0.174705259544681E+00
 -0.809016994374947E+00  0.187381314585725E+00 -0.154224904467694E+00
 -0.809016994374947E+00  0.309016994374947E+00 -0.112888610814653E+00
 -0.809016994374947E+00  0.425779291565073E+00 -0.544852695771444E-01
 -0.809016994374947E+00  0.535826794978997E+00  0.894000350407796E-02
 -0.809016994374947E+00  0.637423989748690E+00  0.599216665117810E-01
 -0.809016994374947E+00  0.728968627421411E+00  0.852770887945449E-01
 -0.809016994374947E+00  0.809016994374947E+00  0.837641137851852E-01
 -0.809016994374947E+00  0.876306680043864E+00  0.645750532447505E-01
 -0.809016994374947E+00  0.929776485888251E+00  0.397958747646930E-01
 -0.809016994374947E+00  0.968583161128631E+00  0.183595181134532E-01
 -0.809016994374947E+00  0.992114701314478E+00  0.464114480542496E-02
 -0.809016994374947E+00  0.100000000000000E+01  0.000000000000000E+00
 -0.728968627421411E+00 -0.100000000000000E+01  0.000000000000000E+00
 -0.728968627421411E+00 -0.992114701314478E+00  0.496412695386170E-02
 -0.728968627421411E+00 -0.968583161128631E+00  0.196151744532994E-01
 -0.728968627421411E+00 -0.929776485888251E+00  0.423092634960953E-01
 -0.728968627421411E+00 -0.876306680043864E+00  0.677413582541241E-01
 -0.728968627421411E+00 -0.809016994374947E+00  0.852770887945408E-01
 -0.728968627421411E+00 -0.728968627421411E+00  0.813000647771113E-01
 -0.728968627421411E+00 -0.637423989748690E+00  0.472018239688839E-01
 -0.728968627421411E+00 -0.535826794978997E+00 -0.122917346735840E-01
 -0.728968627421411E+00 -0.425779291565073E+00 -0.800900185299397E-01
 -0.728968627421411E+00 -0.309016994374947E+00 -0.137918439000762E+00
 -0.728968627421411E+00 -0.187381314585725E+00 -0.176249829321985E+00
 -0.728968627421411E+00 -0.627905195293134E-01 -0.194388950863205E+00
 -0.728968627421411E+00  0.627905195293134E-01 -0.194388950863205E+00
 -0.728968627421411E+00  0.187381314585725E+00 -0.176249829321984E+00
 -0.728968627421411E+00  0.309016994374947E+00 -0.137918439000761E+00
 -0.728968627421411E+00  0.425779291565073E+00 -0.800900185299371E-01
 -0.728968627421411E+00  0.535826794978997E+00 -0.122917346735802E-01
 -0.728968627421411E+00  0.637423989748690E+00  0.472018239688885E-01
 -0.728968627421411E+00  0.728968627421411E+00  0.813000647771170E-01
 -0.728968627421411E+00  0.809016994374947E+00  0.852770887945455E-01
 -0.728968627421411E+00  0.876306680043864E+00  0.677413582541278E-01
 -0.728968627421411E+00  0.929776485888251E+00  0.423092634960979E-01
 -0.728968627421411E+00  0.968583161128631E+00  0.196151744533005E-01
 -0.728968627421411E+00  0.992114701314478E+00  0.496412695386200E-02
 -0.728968627421411E+00  0.100000000000000E+01  0.000000000000000E+00
 -0.637423989748690E+00 -0.100000000000000E+01  0.000000000000000E+00
 -0.637423989748690E+00 -0.992114701314478E+00  0.391206600269194E-02
 -0.637423989748690E+00 -0.968583161128631E+00  0.154217000404132E-01
 -0.637423989748690E+00 -0.929776485888251E+00  0.329134398522534E-01
 -0.637423989748690E+00 -0.876306680043864E+00  0.511543147138554E-01
 -0.637423989748690E+00 -0.809016994374947E+00  0.599216665117771E-01
 -0.637423989748690E+00 -0.728968627421411E+00  0.472018239688839E-01
 -0.637423989748690E+00 -0.637423989748690E+00  0.792696554025205E-02
 -0.637423989748690E+00 -0.535826794978997E+00 -0.490265059722181E-01
 -0.637423989748690E+00 -0.425779291565073E+00 -0.105538955425031E+00
 -0.637423989748690E+00 -0.309016994374947E+00 -0.147464559517009E+00
 -0.637423989748690E+00 -0.187381314585725E+00 -0.171674199253477E+00
 -0.637423989748690E+00 -0.627905195293134E-01 -0.181939370860690E+00
 -0.637423989748690E+00  0.627905195293134E-01 -0.181939370860690E+00
 -0.637423989748690E+00  0.187381314585725E+00 -0.171674199253476E+00
 -0.637423989748690E+00  0.309016994374947E+00 -0.147464559517008E+00
 -0.637423989748690E+00  0.425779291565073E+00 -0.105538955425028E+00
 -0.637423989748690E+00  0.535826794978997E+00 -0.490265059722134E-01
 -0.637423989748690E+00  0.637423989748690E+00  0.792696554025752E-02
 -0.637423989748690E+00  0.728968627421411E+00  0.472018239688897E-01
 -0.637423989748690E+00  0.809016994374947E+00  0.599216665117825E-01
 -0.637423989748690E+00  0.876306680043864E+00  0.511543147138595E-01
 -0.637423989748690E+00  0.929776485888251E+00  0.329134398522560E-01
 -0.637423989748690E+00  0.968583161128631E+00  0.154217000404143E-01
 -0.637423989748690E+00  0.992114701314478E+00  0.391206600269219E-02
 -0.637423989748690E+00  0.100000000000000E+01  0.000000000000000E+00
 -0.535826794978997E+00 -0.100000000000000E+01  0.000000000000000E+00
 -0.535826794978997E+00 -0.992114701314478E+00  0.139120212001526E-02
 -0.535826794978997E+00 -0.968583161128631E+00  0.542472352780540E-02
 -0.535826794978997E+00 -0.929776485888251E+00  0.109850644911295E-01
 -0.535826794978997E+00 -0.876306680043864E+00  0.144328286996615E-01
 -0.535826794978997E+00 -0.809016994374947E+00  0.894000350407487E-02
 -0.535826794978997E+00 -0.728968627421411E+00 -0.122917346735840E-01
 -0.535826794978997E+00 -0.637423989748690E+00 -0.490265059722181E-01
 -0.535826794978997E+00 -0.535826794978997E+00 -0.905449677338658E-01
 -0.535826794978997E+00 -0.425779291565073E+00 -0.122924434183013E+00
 -0.535826794978997E+00 -0.309016994374947E+00 -0.140219145903841E+00
 -0.535826794978997E+00 -0.187381314585725E+00 -0.146164235133239E+00
 -0.535826794978997E+00 -0.627905195293134E-01 -0.147231693214535E+00
 -0.535826794978997E+00  0.627905195293134E-01 -0.147231693214535E+00
 -0.535826794978997E+00  0.187381314585725E+00 -0.146164235133238E+00
 -0.535826794978997E+00  0.309016994374947E+00 -0.140219145903840E+00
 -0.535826794978997E+00  0.425779291565073E+00 -0.122924434183010E+00
 -0.535826794978997E+00  0.535826794978997E+00 -0.905449677338613E-01
 -0.535826794978997E+00  0.637423989748690E+00 -0.490265059722119E-01
 -0.535826794978997E+00  0.728968627421411E+00 -0.122917346735780E-01
 -0.535826794978997E+00  0.809016994374947E+00  0.894000350407990E-02
 -0.535826794978997E+00  0.876306680043864E+00  0.144328286996653E-01
 -0.535826794978997E+00  0.929776485888251E+00  0.109850644911315E-01
 -0.535826794978997E+00  0.968583161128631E+00  0.542472352780605E-02
 -0.535826794978997E+00  0.992114701314478E+00  0.139120212001542E-02
 -0.535826794978997E+00  0.100000000000000E+01  0.000000000000000E+00
 -0.425779291565073E+00 -0.100000000000000E+01  0.000000000000000E+00
 -0.425779291565073E+00 -0.992114701314478E+00 -0.203942913097297E-02
 -0.425779291565073E+00 -0.968583161128631E+00 -0.814673485782546E-02
 -0.425779291565073E+00 -0.929776485888251E+00 -0.184913302933154E-01
 -0.425779291565073E+00 -0.876306680043864E+00 -0.336704364245960E-01
 -0.425779291565073E+00 -0.809016994374947E+00 -0.544852695771464E-01
 -0.425779291565073E+00 -0.728968627421411E+00 -0.800900185299397E-01
 -0.425779291565073E+00 -0.637423989748690E+00 -0.105538955425031E+00
 -0.425779291565073E+00 -0.535826794978997E+00 -0.122924434183013E+00
 -0.425779291565073E+00 -0.425779291565073E+00 -0.127571433341858E+00
 -0.425779291565073E+00 -0.309016994374947E+00 -0.122451426764893E+00
 -0.425779291565073E+00 -0.187381314585725E+00 -0.114718720236335E+00
 -0.425779291565073E+00 -0.627905195293134E-01 -0.109797770300213E+00
 -0.425779291565073E+00  0.627905195293134E-01 -0.109797770300213E+00
 -0.425779291565073E+00  0.187381314585725E+00 -0.114718720236335E+00
 -0.425779291565073E+00  0.309016994374947E+00 -0.122451426764892E+00
 -0.425779291565073E+00  0.425779291565073E+00 -0.127571433341855E+00
 -0.425779291565073E+00  0.535826794978997E+00 -0.122924434183009E+00
 -0.425779291565073E+00  0.637423989748690E+00 -0.105538955425025E+00
 -0.425779291565073E+00  0.728968627421411E+00 -0.800900185299344E-01
 -0.425779291565073E+00  0.809016994374947E+00 -0.544852695771425E-01
 -0.425779291565073E+00  0.876306680043864E+00 -0.336704364245934E-01
 -0.425779291565073E+00  0.929776485888251E+00 -0.184913302933138E-01
 -0.425779291565073E+00  0.968583161128631E+00 -0.814673485782479E-02
 -0.425779291565073E+00  0.992114701314478E+00 -0.203942913097281E-02
 -0.425779291565073E+00  0.100000000000000E+01  0.000000000000000E+00
 -0.309016994374947E+00 -0.100000000000000E+01  0.000000000000000E+00
 -0.309016994374947E+00 -0.992114701314478E+00 -0.542931601173000E-02
 -0.309016994374947E+00 -0.968583161128631E+00 -0.215312270800371E-01
 -0.309016994374947E+00 -0.929776485888251E+00 -0.473477124205878E-01
 -0.309016994374947E+00 -0.876306680043864E+00 -0.798388461503646E-01
 -0.309016994374947E+00 -0.809016994374947E+00 -0.112888610814654E+00
 -0.309016994374947E+00 -0.728968627421411E+00 -0.137918439000762E+00
 -0.309016994374947E+00 -0.637423989748690E+00 -0.147464559517009E+00
 -0.309016994374947E+00 -0.535826794978997E+00 -0.140219145903841E+00
 -0.309016994374947E+00 -0.425779291565073E+00 -0.122451426764893E+00
 -0.309016994374947E+00 -0.309016994374947E+00 -0.103493675061333E+00
 -0.309016994374947E+00 -0.187381314585725E+00 -0.896919000582505E-01
 -0.309016994374947E+00 -0.627905195293134E-01 -0.828997086115114E-01
 -0.309016994374947E+00  0.627905195293134E-01 -0.828997086115112E-01
 -0.309016994374947E+00  0.187381314585725E+00 -0.896919000582501E-01
 -0.309016994374947E+00  0.309016994374947E+00 -0.103493675061333E+00
 -0.309016994374947E+00  0.425779291565073E+00 -0.122451426764890E+00
 -0.309016994374947E+00  0.535826794978997E+00 -0.140219145903838E+00
 -0.309016994374947E+00  0.637423989748690E+00 -0.147464559517003E+00
 -0.309016994374947E+00  0.728968627421411E+00 -0.137918439000757E+00
 -0.309016994374947E+00  0.809016994374947E+00 -0.112888610814651E+00
 -0.309016994374947E+00  0.876306680043864E+00 -0.798388461503626E-01
 -0.309016994374947E+00  0.929776485888251E+00 -0.473477124205874E-01
 -0.309016994374947E+00  0.968583161128631E+00 -0.215312270800370E-01
 -0.309016994374947E+00  0.992114701314478E+00 -0.542931601173000E-02
 -0.309016994374947E+00  0.100000000000000E+01  0.000000000000000E+00
 -0.187381314585725E+00 -0.100000000000000E+01  0.000000000000000E+00
 -0.187381314585725E+00 -0.992114701314478E+00 -0.796591348683502E-02
 -0.187381314585725E+00 -0.968583161128631E+00 -0.315315550394008E-01
 -0.187381314585725E+00 -0.929776485888251E+00 -0.687866479314612E-01
 -0.187381314585725E+00 -0.876306680043864E+00 -0.113618369325519E+00
 -0.187381314585725E+00 -0.809016994374947E+00 -0.154224904467695E+00
 -0.187381314585725E+00 -0.728968627421411E+00 -0.176249829321985E+00
 -0.187381314585725E+00 -0.637423989748690E+00 -0.171674199253477E+00
 -0.187381314585725E+00 -0.535826794978997E+00 -0.146164235133239E+00
 -0.187381314585725E+00 -0.425779291565073E+00 -0.114718720236335E+00
 -0.187381314585725E+00 -0.309016994374947E+00 -0.896919000582505E-01
 -0.187381314585725E+00 -0.187381314585725E+00 -0.747277965152865E-01
 -0.187381314585725E+00 -0.627905195293134E-01 -0.681992225440994E-01
 -0.187381314585725E+00  0.627905195293134E-01 -0.681992225440993E-01
 -0.187381314585725E+00  0.187381314585725E+00 -0.747277965152859E-01
 -0.187381314585725E+00  0.309016994374947E+00 -0.896919000582501E-01
 -0.187381314585725E+00  0.425779291565073E+00 -0.114718720236333E+00
 -0.187381314585725E+00  0.535826794978997E+00 -0.146164235133235E+00
 -0.187381314585725E+00  0.637423989748690E+00 -0.171674199253471E+00
 -0.187381314585725E+00  0.728968627421411E+00 -0.176249829321981E+00
 -0.187381314585725E+00  0.809016994374947E+00 -0.154224904467693E+00
 -0.187381314585725E+00  0.876306680043864E+00 -0.113618369325518E+00
 -0.187381314585725E+00  0.929776485888251E+00 -0.687866479314609E-01
 -0.187381314585725E+00  0.968583161128631E+00 -0.315315550394005E-01
 -0.187381314585725E+00  0.992114701314478E+00 -0.796591348683487E-02
 -0.187381314585725E+00  0.100000000000000E+01  0.000000000000000E+00
 -0.627905195293134E-01 -0.100000000000000E+01  0.000000000000000E+00
 -0.627905195293134E-01 -0.992114701314478E+00 -0.926964354681073E-02
 -0.627905195293134E-01 -0.968583161128631E+00 -0.366665273621598E-01
 -0.627905195293134E-01 -0.929776485888251E+00 -0.797548022695564E-01
 -0.627905195293134E-01 -0.876306680043864E+00 -0.130728831968053E+00
 -0.627905195293134E-01 -0.809016994374947E+00 -0.174705259544681E+00
 -0.627905195293134E-01 -0.728968627421411E+00 -0.194388950863205E+00
 -0.627905195293134E-01 -0.637423989748690E+00 -0.181939370860690E+00
 -0.627905195293134E-01 -0.535826794978997E+00 -0.147231693214535E+00
 -0.627905195293134E-01 -0.425779291565073E+00 -0.109797770300213E+00
 -0.627905195293134E-01 -0.309016994374947E+00 -0.828997086115114E-01
 -0.627905195293134E-01 -0.187381314585725E+00 -0.681992225440994E-01
 -0.627905195293134E-01 -0.627905195293134E-01 -0.621801222839329E-01
 -0.627905195293134E-01  0.627905195293134E-01 -0.621801222839326E-01
 -0.627905195293134E-01  0.187381314585725E+00 -0.681992225440989E-01
 -0.627905195293134E-01  0.309016994374947E+00 -0.828997086115105E-01
 -0.627905195293134E-01  0.425779291565073E+00 -0.109797770300211E+00
 -0.627905195293134E-01  0.535826794978997E+00 -0.147231693214532E+00
 -0.627905195293134E-01  0.637423989748690E+00 -0.181939370860685E+00
 -0.627905195293134E-01  0.728968627421411E+00 -0.194388950863201E+00
 -0.627905195293134E-01  0.809016994374947E+00 -0.174705259544679E+00
 -0.627905195293134E-01  0.876306680043864E+00 -0.130728831968053E+00
 -0.627905195293134E-01  0.929776485888251E+00 -0.797548022695559E-01
 -0.627905195293134E-01  0.968583161128631E+00 -0.366665273621596E-01
 -0.627905195293134E-01  0.992114701314478E+00 -0.926964354681072E-02
 -0.627905195293134E-01  0.100000000000000E+01  0.000000000000000E+00
  0.627905195293134E-01 -0.100000000000000E+01  0.000000000000000E+00
  0.627905195293134E-01 -0.992114701314478E+00 -0.926964354681076E-02
  0.627905195293134E-01 -0.968583161128631E+00 -0.366665273621597E-01
  0.627905195293134E-01 -0.929776485888251E+00 -0.797548022695562E-01
  0.627905195293134E-01 -0.876306680043864E+00 -0.130728831968053E+00
  0.627905195293134E-01 -0.809016994374947E+00 -0.174705259544681E+00
  0.627905195293134E-01 -0.728968627421411E+00 -0.194388950863205E+00
  0.627905195293134E-01 -0.637423989748690E+00 -0.181939370860690E+00
  0.627905195293134E-01 -0.535826794978997E+00 -0.147231693214535E+00
  0.627905195293134E-01 -0.425779291565073E+00 -0.109797770300213E+00
  0.627905195293134E-01 -0.309016994374947E+00 -0.828997086115112E-01
  0.627905195293134E-01 -0.187381314585725E+00 -0.681992225440993E-01
  0.627905195293134E-01 -0.627905195293134E-01 -0.621801222839326E-01
  0.627905195293134E-01  0.627905195293134E-01 -0.621801222839321E-01
  0.627905195293134E-01  0.187381314585725E+00 -0.681992225440984E-01
  0.627905195293134E-01  0.309016994374947E+00 -0.828997086115103E-01
  0.627905195293134E-01  0.425779291565073E+00 -0.109797770300211E+00
  0.627905195293134E-01  0.535826794978997E+00 -0.147231693214531E+00
  0.627905195293134E-01  0.637423989748690E+00 -0.181939370860684E+00
  0.627905195293134E-01  0.728968627421411E+00 -0.194388950863201E+00
  0.627905195293134E-01  0.809016994374947E+00 -0.174705259544679E+00
  0.627905195293134E-01  0.876306680043864E+00 -0.130728831968052E+00
  0.627905195293134E-01  0.929776485888251E+00 -0.797548022695555E-01
  0.627905195293134E-01  0.968583161128631E+00 -0.366665273621593E-01
  0.627905195293134E-01  0.992114701314478E+00 -0.926964354681062E-02
  0.627905195293134E-01  0.100000000000000E+01  0.000000000000000E+00
  0.187381314585725E+00 -0.100000000000000E+01  0.000000000000000E+00
  0.187381314585725E+00 -0.992114701314478E+00 -0.796591348683499E-02
  0.187381314585725E+00 -0.968583161128631E+00 -0.315315550394007E-01
  0.187381314585725E+00 -0.929776485888251E+00 -0.687866479314607E-01
  0.187381314585725E+00 -0.876306680043864E+00 -0.113618369325518E+00
  0.187381314585725E+00 -0.809016994374947E+00 -0.154224904467694E+00
  0.187381314585725E+00 -0.728968627421411E+00 -0.176249829321984E+00
  0.187381314585725E+00 -0.637423989748690E+00 -0.171674199253476E+00
  0.187381314585725E+00 -0.535826794978997E+00 -0.146164235133238E+00
  0.187381314585725E+00 -0.425779291565073E+00 -0.114718720236335E+00
  0.187381314585725E+00 -0.309016994374947E+00 -0.896919000582501E-01
  0.187381314585725E+00 -0.187381314585725E+00 -0.747277965152859E-01
  0.187381314585725E+00 -0.627905195293134E-01 -0.681992225440989E-01
  0.187381314585725E+00  0.627905195293134E-01 -0.681992225440984E-01
  0.187381314585725E+00  0.187381314585725E+00 -0.747277965152853E-01
  0.187381314585725E+00  0.309016994374947E+00 -0.896919000582499E-01
  0.187381314585725E+00  0.425779291565073E+00 -0.114718720236333E+00
  0.187381314585725E+00  0.535826794978997E+00 -0.146164235133235E+00
  0.187381314585725E+00  0.637423989748690E+00 -0.171674199253470E+00
  0.187381314585725E+00  0.728968627421411E+00 -0.176249829321980E+00
  0.187381314585725E+00  0.809016994374947E+00 -0.154224904467692E+00
  0.187381314585725E+00  0.876306680043864E+00 -0.113618369325517E+00
  0.187381314585725E+00  0.929776485888251E+00 -0.687866479314602E-01
  0.187381314585725E+00  0.968583161128631E+00 -0.315315550394003E-01
  0.187381314585725E+00  0.992114701314478E+00 -0.796591348683483E-02
  0.187381314585725E+00  0.100000000000000E+01  0.000000000000000E+00
  0.309016994374947E+00 -0.100000000000000E+01  0.000000000000000E+00
  0.309016994374947E+00 -0.992114701314478E+00 -0.542931601172997E-02
  0.309016994374947E+00 -0.968583161128631E+00 -0.215312270800370E-01
  0.309016994374947E+00 -0.929776485888251E+00 -0.473477124205874E-01
  0.309016994374947E+00 -0.876306680043864E+00 -0.798388461503636E-01
  0.309016994374947E+00 -0.809016994374947E+00 -0.112888610814653E+00
  0.309016994374947E+00 -0.728968627421411E+00 -0.137918439000761E+00
  0.309016994374947E+00 -0.637423989748690E+00 -0.147464559517008E+00
  0.309016994374947E+00 -0.535826794978997E+00 -0.140219145903840E+00
  0.309016994374947E+00 -0.425779291565073E+00 -0.122451426764892E+00
  0.309016994374947E+00 -0.309016994374947E+00 -0.103493675061333E+00
  0.309016994374947E+00 -0.187381314585725E+00 -0.896919000582501E-01
  0.309016994374947E+00 -0.627905195293134E-01 -0.828997086115105E-01
  0.309016994374947E+00  0.627905195293134E-01 -0.828997086115103E-01
  0.309016994374947E+00  0.187381314585725E+00 -0.896919000582499E-01
  0.309016994374947E+00  0.309016994374947E+00 -0.103493675061332E+00
  0.309016994374947E+00  0.425779291565073E+00 -0.122451426764890E+00
  0.309016994374947E+00  0.535826794978997E+00 -0.140219145903836E+00
  0.309016994374947E+00  0.637423989748690E+00 -0.147464559517002E+00
  0.309016994374947E+00  0.728968627421411E+00 -0.137918439000756E+00
  0.309016994374947E+00  0.809016994374947E+00 -0.112888610814650E+00
  0.309016994374947E+00  0.876306680043864E+00 -0.798388461503614E-01
  0.309016994374947E+00  0.929776485888251E+00 -0.473477124205864E-01
  0.309016994374947E+00  0.968583161128631E+00 -0.215312270800365E-01
  0.309016994374947E+00  0.992114701314478E+00 -0.542931601172986E-02
  0.309016994374947E+00  0.100000000000000E+01  0.000000000000000E+00
  0.425779291565073E+00 -0.100000000000000E+01  0.000000000000000E+00
  0.425779291565073E+00 -0.992114701314478E+00 -0.203942913097289E-02
  0.425779291565073E+00 -0.968583161128631E+00 -0.814673485782517E-02
  0.425779291565073E+00 -0.929776485888251E+00 -0.184913302933146E-01
  0.425779291565073E+00 -0.876306680043864E+00 -0.336704364245945E-01
  0.425779291565073E+00 -0.809016994374947E+00 -0.544852695771444E-01
  0.425779291565073E+00 -0.728968627421411E+00 -0.800900185299371E-01
  0.425779291565073E+00 -0.637423989748690E+00 -0.105538955425028E+00
  0.425779291565073E+00 -0.535826794978997E+00 -0.122924434183010E+00
  0.425779291565073E+00 -0.425779291565073E+00 -0.127571433341855E+00
  0.425779291565073E+00 -0.309016994374947E+00 -0.122451426764890E+00