 VARIABLES =  $x$  (a)
 ZONE I=         676 ,DATAPACKING=POINT
 -0.100000000000000E+01 -0.100000000000000E+01  0.000000000000000E+00
 -0.100000000000000E+01 -0.992114701314478E+00  0.000000000000000E+00
 -0.100000000000000E+01 -0.968583161128631E+00  0.000000000000000E+00
 -0.100000000000000E+01 -0.929776485888251E+00  0.000000000000000E+00
 -0.100000000000000E+01 -0.876306680043864E+00  0.000000000000000E+00
 -0.100000000000000E+01 -0.809016994374947E+00  0.000000000000000E+00
 -0.100000000000000E+01 -0.728968627421411E+00  0.000000000000000E+00
 -0.100000000000000E+01 -0.637423989748690E+00  0.000000000000000E+00
 -0.100000000000000E+01 -0.535826794978997E+00  0.000000000000000E+00
 -0.100000000000000E+01 -0.425779291565073E+00  0.000000000000000E+00
 -0.100000000000000E+01 -0.309016994374947E+00  0.000000000000000E+00
 -0.100000000000000E+01 -0.187381314585725E+00  0.000000000000000E+00
 -0.100000000000000E+01 -0.627905195293134E-01  0.000000000000000E+00
 -0.100000000000000E+01  0.627905195293134E-01  0.000000000000000E+00
 -0.100000000000000E+01  0.187381314585725E+00  0.000000000000000E+00
 -0.100000000000000E+01  0.309016994374947E+00  0.000000000000000E+00
 -0.100000000000000E+01  0.425779291565073E+00  0.000000000000000E+00
 -0.100000000000000E+01  0.535826794978997E+00  0.000000000000000E+00
 -0.100000000000000E+01  0.637423989748690E+00  0.000000000000000E+00
 -0.100000000000000E+01  0.728968627421411E+00  0.000000000000000E+00
 -0.100000000000000E+01  0.809016994374947E+00  0.000000000000000E+00
 -0.100000000000000E+01  0.876306680043864E+00  0.000000000000000E+00
 -0.100000000000000E+01  0.929776485888251E+00  0.000000000000000E+00
 -0.100000000000000E+01  0.968583161128631E+00  0.000000000000000E+00
 -0.100000000000000E+01  0.992114701314478E+00  0.000000000000000E+00
 -0.100000000000000E+01  0.100000000000000E+01  0.000000000000000E+00
 -0.992114701314478E+00 -0.100000000000000E+01  0.000000000000000E+00
 -0.992114701314478E+00 -0.992114701314478E+00  0.282196718662235E-08
 -0.992114701314478E+00 -0.968583161128631E+00  0.447638871555683E-08
 -0.992114701314478E+00 -0.929776485888251E+00  0.935122073055586E-08
 -0.992114701314478E+00 -0.876306680043864E+00  0.245623812842909E-07
 -0.992114701314478E+00 -0.809016994374947E+00  0.763451922211519E-07
 -0.992114701314478E+00 -0.728968627421411E+00  0.261490363942217E-06
 -0.992114701314478E+00 -0.637423989748690E+00  0.913475544483380E-06
 -0.992114701314478E+00 -0.535826794978997E+00  0.300864920865754E-05
 -0.992114701314478E+00 -0.425779291565073E+00  0.866866414498265E-05
 -0.992114701314478E+00 -0.309016994374947E+00  0.204438013525422E-04
 -0.992114701314478E+00 -0.187381314585725E+00  0.373927629528755E-04
 -0.992114701314478E+00 -0.627905195293134E-01  0.510685199226557E-04
 -0.992114701314478E+00  0.627905195293134E-01  0.510685199226557E-04
 -0.992114701314478E+00  0.187381314585725E+00  0.373927629528755E-04
 -0.992114701314478E+00  0.309016994374947E+00  0.204438013525422E-04
 -0.992114701314478E+00  0.425779291565073E+00  0.866866414498265E-05
 -0.992114701314478E+00  0.535826794978997E+00  0.300864920865754E-05
 -0.992114701314478E+00  0.637423989748690E+00  0.913475544483380E-06
 -0.992114701314478E+00  0.728968627421411E+00  0.261490363942217E-06
 -0.992114701314478E+00  0.809016994374947E+00  0.763451922211519E-07
 -0.992114701314478E+00  0.876306680043864E+00  0.245623812842909E-07
 -0.992114701314478E+00  0.929776485888251E+00  0.935122073055586E-08
 -0.992114701314478E+00  0.968583161128631E+00  0.447638871555683E-08
 -0.992114701314478E+00  0.992114701314478E+00  0.282196718662235E-08
 -0.992114701314478E+00  0.100000000000000E+01  0.000000000000000E+00
 -0.968583161128631E+00 -0.100000000000000E+01  0.000000000000000E+00
 -0.968583161128631E+00 -0.992114701314478E+00  0.447638871555683E-08
 -0.968583161128631E+00 -0.968583161128631E+00  0.710074023105434E-08
 -0.968583161128631E+00 -0.929776485888251E+00  0.148335172546935E-07
 -0.968583161128631E+00 -0.876306680043864E+00  0.389624538972070E-07
 -0.968583161128631E+00 -0.809016994374947E+00  0.121103731668414E-06
 -0.968583161128631E+00 -0.728968627421411E+00  0.414793098915801E-06
 -0.968583161128631E+00 -0.637423989748690E+00  0.144901458764189E-05
 -0.968583161128631E+00 -0.535826794978997E+00  0.477251593517765E-05
 -0.968583161128631E+00 -0.425779291565073E+00  0.137508014060212E-04
 -0.968583161128631E+00 -0.309016994374947E+00  0.324292933353134E-04
 -0.968583161128631E+00 -0.187381314585725E+00  0.593148435315749E-04
 -0.968583161128631E+00 -0.627905195293134E-01  0.810082226985718E-04
 -0.968583161128631E+00  0.627905195293134E-01  0.810082226985718E-04
 -0.968583161128631E+00  0.187381314585725E+00  0.593148435315749E-04
 -0.968583161128631E+00  0.309016994374947E+00  0.324292933353134E-04
 -0.968583161128631E+00  0.425779291565073E+00  0.137508014060213E-04
 -0.968583161128631E+00  0.535826794978997E+00  0.477251593517765E-05
 -0.968583161128631E+00  0.637423989748690E+00  0.144901458764189E-05
 -0.968583161128631E+00  0.728968627421411E+00  0.414793098915801E-06
 -0.968583161128631E+00  0.809016994374947E+00  0.121103731668414E-06
 -0.968583161128631E+00  0.876306680043864E+00  0.389624538972070E-07
 -0.968583161128631E+00  0.929776485888251E+00  0.148335172546935E-07
 -0.968583161128631E+00  0.968583161128631E+00  0.710074023105434E-08
 -0.968583161128631E+00  0.992114701314478E+00  0.447638871555683E-08
 -0.968583161128631E+00  0.100000000000000E+01  0.000000000000000E+00
 -0.929776485888251E+00 -0.100000000000000E+01  0.000000000000000E+00
 -0.929776485888251E+00 -0.992114701314478E+00  0.935122073055586E-08
 -0.929776485888251E+00 -0.968583161128631E+00  0.148335172546935E-07
 -0.929776485888251E+00 -0.929776485888251E+00  0.309873656809746E-07
 -0.929776485888251E+00 -0.876306680043864E+00  0.813929552924375E-07
 -0.929776485888251E+00 -0.809016994374947E+00  0.252986904865896E-06
 -0.929776485888251E+00 -0.728968627421411E+00  0.866506925994350E-06
 -0.929776485888251E+00 -0.637423989748690E+00  0.302700594426576E-05
 -0.929776485888251E+00 -0.535826794978997E+00  0.996983344963820E-05
 -0.929776485888251E+00 -0.425779291565073E+00  0.287255614604835E-04
 -0.929776485888251E+00 -0.309016994374947E+00  0.677451176347936E-04
 -0.929776485888251E+00 -0.187381314585725E+00  0.123909300489143E-03
 -0.929776485888251E+00 -0.627905195293134E-01  0.169226986211393E-03
 -0.929776485888251E+00  0.627905195293134E-01  0.169226986211393E-03
 -0.929776485888251E+00  0.187381314585725E+00  0.123909300489143E-03
 -0.929776485888251E+00  0.309016994374947E+00  0.677451176347936E-04
 -0.929776485888251E+00  0.425779291565073E+00  0.287255614604835E-04
 -0.929776485888251E+00  0.535826794978997E+00  0.996983344963820E-05
 -0.929776485888251E+00  0.637423989748690E+00  0.302700594426576E-05
 -0.929776485888251E+00  0.728968627421411E+00  0.866506925994350E-06
 -0.929776485888251E+00  0.809016994374947E+00  0.252986904865896E-06
 -0.929776485888251E+00  0.876306680043864E+00  0.813929552924375E-07
 -0.929776485888251E+00  0.929776485888251E+00  0.309873656809746E-07
 -0.929776485888251E+00  0.968583161128631E+00  0.148335172546935E-07
 -0.929776485888251E+00  0.992114701314478E+00  0.935122073055586E-08
 -0.929776485888251E+00  0.100000000000000E+01  0.000000000000000E+00
 -0.876306680043864E+00 -0.100000000000000E+01  0.000000000000000E+00
 -0.876306680043864E+00 -0.992114701314478E+00  0.245623812842909E-07
 -0.876306680043864E+00 -0.968583161128631E+00  0.389624538972070E-07
 -0.876306680043864E+00 -0.929776485888251E+00  0.813929552924375E-07
 -0.876306680043864E+00 -0.876306680043864E+00  0.213790782973985E-06
 -0.876306680043864E+00 -0.809016994374947E+00  0.664507982037484E-06
 -0.876306680043864E+00 -0.728968627421411E+00  0.227601017182780E-05
 -0.876306680043864E+00 -0.637423989748690E+00  0.795088430646542E-05
 -0.876306680043864E+00 -0.535826794978997E+00  0.261872602077199E-04
 -0.876306680043864E+00 -0.425779291565073E+00  0.754519878770723E-04
 -0.876306680043864E+00 -0.309016994374947E+00  0.177942694054665E-03
 -0.876306680043864E+00 -0.187381314585725E+00  0.325466329047202E-03
 -0.876306680043864E+00 -0.627905195293134E-01  0.444500015418692E-03
 -0.876306680043864E+00  0.627905195293134E-01  0.444500015418692E-03
 -0.876306680043864E+00  0.187381314585725E+00  0.325466329047202E-03
 -0.876306680043864E+00  0.309016994374947E+00  0.177942694054665E-03
 -0.876306680043864E+00  0.425779291565073E+00  0.754519878770724E-04
 -0.876306680043864E+00  0.535826794978997E+00  0.261872602077199E-04
 -0.876306680043864E+00  0.637423989748690E+00  0.795088430646542E-05
 -0.876306680043864E+00  0.728968627421411E+00  0.227601017182780E-05
 -0.876306680043864E+00  0.809016994374947E+00  0.664507982037484E-06
 -0.876306680043864E+00  0.876306680043864E+00  0.213790782973985E-06
 -0.876306680043864E+00  0.929776485888251E+00  0.813929552924375E-07
 -0.876306680043864E+00  0.968583161128631E+00  0.389624538972070E-07
 -0.876306680043864E+00  0.992114701314478E+00  0.245623812842909E-07
 -0.876306680043864E+00  0.100000000000000E+01  0.000000000000000E+00
 -0.809016994374947E+00 -0.100000000000000E+01  0.000000000000000E+00
 -0.809016994374947E+00 -0.992114701314478E+00  0.763451922211519E-07
 -0.809016994374947E+00 -0.968583161128631E+00  0.121103731668414E-06
 -0.809016994374947E+00 -0.929776485888251E+00  0.252986904865896E-06
 -0.809016994374947E+00 -0.876306680043864E+00  0.664507982037484E-06
 -0.809016994374947E+00 -0.809016994374947E+00  0.206543449651551E-05
 -0.809016994374947E+00 -0.728968627421411E+00  0.707433176182397E-05
 -0.809016994374947E+00 -0.637423989748690E+00  0.247130676655305E-04
 -0.809016994374947E+00 -0.535826794978997E+00  0.813956672670963E-04
 -0.809016994374947E+00 -0.425779291565073E+00  0.234521093507624E-03
 -0.809016994374947E+00 -0.309016994374947E+00  0.553084370147834E-03
 -0.809016994374947E+00 -0.187381314585725E+00  0.101161972713586E-02
 -0.809016994374947E+00 -0.627905195293134E-01  0.138160216335167E-02
 -0.809016994374947E+00  0.627905195293134E-01  0.138160216335167E-02
 -0.809016994374947E+00  0.187381314585725E+00  0.101161972713586E-02
 -0.809016994374947E+00  0.309016994374947E+00  0.553084370147835E-03
 -0.809016994374947E+00  0.425779291565073E+00  0.234521093507624E-03
 -0.809016994374947E+00  0.535826794978997E+00  0.813956672670963E-04
 -0.809016994374947E+00  0.637423989748690E+00  0.247130676655305E-04
 -0.809016994374947E+00  0.728968627421411E+00  0.707433176182397E-05
 -0.809016994374947E+00  0.809016994374947E+00  0.206543449651551E-05
 -0.809016994374947E+00  0.876306680043864E+00  0.664507982037484E-06
 -0.809016994374947E+00  0.929776485888251E+00  0.252986904865896E-06
 -0.809016994374947E+00  0.968583161128631E+00  0.121103731668414E-06
 -0.809016994374947E+00  0.992114701314478E+00  0.763451922211519E-07
 -0.809016994374947E+00  0.100000000000000E+01  0.000000000000000E+00
 -0.728968627421411E+00 -0.100000000000000E+01  0.000000000000000E+00
 -0.728968627421411E+00 -0.992114701314478E+00  0.261490363942217E-06
 -0.728968627421411E+00 -0.968583161128631E+00  0.414793098915801E-06
 -0.728968627421411E+00 -0.929776485888251E+00  0.866506925994350E-06
 -0.728968627421411E+00 -0.876306680043864E+00  0.227601017182780E-05
 -0.728968627421411E+00 -0.809016994374947E+00  0.707433176182397E-05
 -0.728968627421411E+00 -0.728968627421411E+00  0.242303350509453E-04
 -0.728968627421411E+00 -0.637423989748690E+00  0.846448724533805E-04
 -0.728968627421411E+00 -0.535826794978997E+00  0.278788775530723E-03
 -0.728968627421411E+00 -0.425779291565073E+00  0.803259567620093E-03
 -0.728968627421411E+00 -0.309016994374947E+00  0.189437250772472E-02
 -0.728968627421411E+00 -0.187381314585725E+00  0.346490463804992E-02
 -0.728968627421411E+00 -0.627905195293134E-01  0.473213364204603E-02
 -0.728968627421411E+00  0.627905195293134E-01  0.473213364204603E-02
 -0.728968627421411E+00  0.187381314585725E+00  0.346490463804992E-02
 -0.728968627421411E+00  0.309016994374947E+00  0.189437250772472E-02
 -0.728968627421411E+00  0.425779291565073E+00  0.803259567620094E-03
 -0.728968627421411E+00  0.535826794978997E+00  0.278788775530723E-03
 -0.728968627421411E+00  0.637423989748690E+00  0.846448724533805E-04
 -0.728968627421411E+00  0.728968627421411E+00  0.242303350509453E-04
 -0.728968627421411E+00  0.809016994374947E+00  0.707433176182397E-05
 -0.728968627421411E+00  0.876306680043864E+00  0.227601017182780E-05
 -0.728968627421411E+00  0.929776485888251E+00  0.866506925994350E-06
 -0.728968627421411E+00  0.968583161128631E+00  0.414793098915801E-06
 -0.728968627421411E+00  0.992114701314478E+00  0.261490363942217E-06
 -0.728968627421411E+00  0.100000000000000E+01  0.000000000000000E+00
 -0.637423989748690E+00 -0.100000000000000E+01  0.000000000000000E+00
 -0.637423989748690E+00 -0.992114701314478E+00  0.913475544483380E-06
 -0.637423989748690E+00 -0.968583161128631E+00  0.144901458764189E-05
 -0.637423989748690E+00 -0.929776485888251E+00  0.302700594426576E-05
 -0.637423989748690E+00 -0.876306680043864E+00  0.795088430646542E-05
 -0.637423989748690E+00 -0.809016994374947E+00  0.247130676655305E-04
 -0.637423989748690E+00 -0.728968627421411E+00  0.846448724533805E-04
 -0.637423989748690E+00 -0.637423989748690E+00  0.295693576567754E-03
 -0.637423989748690E+00 -0.535826794978997E+00  0.973904830313582E-03
 -0.637423989748690E+00 -0.425779291565073E+00  0.280606122470880E-02
 -0.637423989748690E+00 -0.309016994374947E+00  0.661769302646491E-02
 -0.637423989748690E+00 -0.187381314585725E+00  0.121041005225150E-01
 -0.637423989748690E+00 -0.627905195293134E-01  0.165309661513620E-01
 -0.637423989748690E+00  0.627905195293134E-01  0.165309661513620E-01
 -0.637423989748690E+00  0.187381314585725E+00  0.121041005225150E-01
 -0.637423989748690E+00  0.309016994374947E+00  0.661769302646491E-02
 -0.637423989748690E+00  0.425779291565073E+00  0.280606122470881E-02
 -0.637423989748690E+00  0.535826794978997E+00  0.973904830313582E-03
 -0.637423989748690E+00  0.637423989748690E+00  0.295693576567754E-03
 -0.637423989748690E+00  0.728968627421411E+00  0.846448724533805E-04
 -0.637423989748690E+00  0.809016994374947E+00  0.247130676655305E-04
 -0.637423989748690E+00  0.876306680043864E+00  0.795088430646542E-05
 -0.637423989748690E+00  0.929776485888251E+00  0.302700594426576E-05
 -0.637423989748690E+00  0.968583161128631E+00  0.144901458764189E-05
 -0.637423989748690E+00  0.992114701314478E+00  0.913475544483380E-06
 -0.637423989748690E+00  0.100000000000000E+01  0.000000000000000E+00
 -0.535826794978997E+00 -0.100000000000000E+01  0.000000000000000E+00
 -0.535826794978997E+00 -0.992114701314478E+00  0.300864920865754E-05
 -0.535826794978997E+00 -0.968583161128631E+00  0.477251593517765E-05
 -0.535826794978997E+00 -0.929776485888251E+00  0.996983344963820E-05
 -0.535826794978997E+00 -0.876306680043864E+00  0.261872602077199E-04
 -0.535826794978997E+00 -0.809016994374947E+00  0.813956672670963E-04
 -0.535826794978997E+00 -0.728968627421411E+00  0.278788775530723E-03
 -0.535826794978997E+00 -0.637423989748690E+00  0.973904830313582E-03
 -0.535826794978997E+00 -0.535826794978997E+00  0.320768083472653E-02
 -0.535826794978997E+00 -0.425779291565073E+00  0.924212359504318E-02
 -0.535826794978997E+00 -0.309016994374947E+00  0.217962232349335E-01
 -0.535826794978997E+00 -0.187381314585725E+00  0.398664120550398E-01
 -0.535826794978997E+00 -0.627905195293134E-01  0.544468634436932E-01
 -0.535826794978997E+00  0.627905195293134E-01  0.544468634436932E-01
 -0.535826794978997E+00  0.187381314585725E+00  0.398664120550398E-01
 -0.535826794978997E+00  0.309016994374947E+00  0.217962232349335E-01
 -0.535826794978997E+00  0.425779291565073E+00  0.924212359504319E-02
 -0.535826794978997E+00  0.535826794978997E+00  0.320768083472653E-02
 -0.535826794978997E+00  0.637423989748690E+00  0.973904830313582E-03
 -0.535826794978997E+00  0.728968627421411E+00  0.278788775530723E-03
 -0.535826794978997E+00  0.809016994374947E+00  0.813956672670963E-04
 -0.535826794978997E+00  0.876306680043864E+00  0.261872602077199E-04
 -0.535826794978997E+00  0.929776485888251E+00  0.996983344963820E-05
 -0.535826794978997E+00  0.968583161128631E+00  0.477251593517765E-05
 -0.535826794978997E+00  0.992114701314478E+00  0.300864920865754E-05
 -0.535826794978997E+00  0.100000000000000E+01  0.000000000000000E+00
 -0.425779291565073E+00 -0.100000000000000E+01  0.000000000000000E+00
 -0.425779291565073E+00 -0.992114701314478E+00  0.866866414498265E-05
 -0.425779291565073E+00 -0.968583161128631E+00  0.137508014060212E-04
 -0.425779291565073E+00 -0.929776485888251E+00  0.287255614604835E-04
 -0.425779291565073E+00 -0.876306680043864E+00  0.754519878770723E-04
 -0.425779291565073E+00 -0.809016994374947E+00  0.234521093507624E-03
 -0.425779291565073E+00 -0.728968627421411E+00  0.803259567620093E-03
 -0.425779291565073E+00 -0.637423989748690E+00  0.280606122470880E-02
 -0.425779291565073E+00 -0.535826794978997E+00  0.924212359504318E-02
 -0.425779291565073E+00 -0.425779291565073E+00  0.266288489868837E-01
 -0.425779291565073E+00 -0.309016994374947E+00  0.628003219215486E-01
 -0.425779291565073E+00 -0.187381314585725E+00  0.114865015095870E+00
 -0.425779291565073E+00 -0.627905195293134E-01  0.156874909704647E+00
 -0.425779291565073E+00  0.627905195293134E-01  0.156874909704647E+00
 -0.425779291565073E+00  0.187381314585725E+00  0.114865015095870E+00
 -0.425779291565073E+00  0.309016994374947E+00  0.628003219215486E-01
 -0.425779291565073E+00  0.425779291565073E+00  0.266288489868837E-01
 -0.425779291565073E+00  0.535826794978997E+00  0.924212359504318E-02
 -0.425779291565073E+00  0.637423989748690E+00  0.280606122470880E-02
 -0.425779291565073E+00  0.728968627421411E+00  0.803259567620093E-03
 -0.425779291565073E+00  0.809016994374947E+00  0.234521093507624E-03
 -0.425779291565073E+00  0.876306680043864E+00  0.754519878770723E-04
 -0.425779291565073E+00  0.929776485888251E+00  0.287255614604835E-04
 -0.425779291565073E+00  0.968583161128631E+00  0.137508014060212E-04
 -0.425779291565073E+00  0.992114701314478E+00  0.866866414498265E-05
 -0.425779291565073E+00  0.100000000000000E+01  0.000000000000000E+00
 -0.309016994374947E+00 -0.100000000000000E+01  0.000000000000000E+00
 -0.309016994374947E+00 -0.992114701314478E+00  0.204438013525422E-04
 -0.309016994374947E+00 -0.968583161128631E+00  0.324292933353134E-04
 -0.309016994374947E+00 -0.929776485888251E+00  0.677451176347936E-04
 -0.309016994374947E+00 -0.876306680043864E+00  0.177942694054665E-03
 -0.309016994374947E+00 -0.809016994374947E+00  0.553084370147834E-03
 -0.309016994374947E+00 -0.728968627421411E+00  0.189437250772472E-02
 -0.309016994374947E+00 -0.637423989748690E+00  0.661769302646491E-02
 -0.309016994374947E+00 -0.535826794978997E+00  0.217962232349335E-01
 -0.309016994374947E+00 -0.425779291565073E+00  0.628003219215486E-01
 -0.309016994374947E+00 -0.309016994374947E+00  0.148105554070051E+00
 -0.309016994374947E+00 -0.187381314585725E+00  0.270892667163244E+00
 -0.309016994374947E+00 -0.627905195293134E-01  0.369966979636194E+00
 -0.309016994374947E+00  0.627905195293134E-01  0.369966979636194E+00
 -0.309016994374947E+00  0.187381314585725E+00  0.270892667163244E+00
 -0.309016994374947E+00  0.309016994374947E+00  0.148105554070051E+00
 -0.309016994374947E+00  0.425779291565073E+00  0.628003219215486E-01
 -0.309016994374947E+00  0.535826794978997E+00  0.217962232349335E-01
 -0.309016994374947E+00  0.637423989748690E+00  0.661769302646491E-02
 -0.309016994374947E+00  0.728968627421411E+00  0.189437250772472E-02
 -0.309016994374947E+00  0.809016994374947E+00  0.553084370147834E-03
 -0.309016994374947E+00  0.876306680043864E+00  0.177942694054665E-03
 -0.309016994374947E+00  0.929776485888251E+00  0.677451176347936E-04
 -0.309016994374947E+00  0.968583161128631E+00  0.324292933353134E-04
 -0.309016994374947E+00  0.992114701314478E+00  0.204438013525422E-04
 -0.309016994374947E+00  0.100000000000000E+01  0.000000000000000E+00
 -0.187381314585725E+00 -0.100000000000000E+01  0.000000000000000E+00
 -0.187381314585725E+00 -0.992114701314478E+00  0.373927629528755E-04
 -0.187381314585725E+00 -0.968583161128631E+00  0.593148435315749E-04
 -0.187381314585725E+00 -0.929776485888251E+00  0.123909300489143E-03
 -0.187381314585725E+00 -0.876306680043864E+00  0.325466329047202E-03
 -0.187381314585725E+00 -0.809016994374947E+00  0.101161972713586E-02
 -0.187381314585725E+00 -0.728968627421411E+00  0.346490463804992E-02
 -0.187381314585725E+00 -0.637423989748690E+00  0.121041005225150E-01
 -0.187381314585725E+00 -0.535826794978997E+00  0.398664120550398E-01
 -0.187381314585725E+00 -0.425779291565073E+00  0.114865015095870E+00
 -0.187381314585725E+00 -0.309016994374947E+00  0.270892667163244E+00
 -0.187381314585725E+00 -0.187381314585725E+00  0.495476605071189E+00
 -0.187381314585725E+00 -0.627905195293134E-01  0.676688612424187E+00
 -0.187381314585725E+00  0.627905195293134E-01  0.676688612424187E+00
 -0.187381314585725E+00  0.187381314585725E+00  0.495476605071189E+00
 -0.187381314585725E+00  0.309016994374947E+00  0.270892667163245E+00
 -0.187381314585725E+00  0.425779291565073E+00  0.114865015095870E+00
 -0.187381314585725E+00  0.535826794978997E+00  0.398664120550398E-01
 -0.187381314585725E+00  0.637423989748690E+00  0.121041005225150E-01
 -0.187381314585725E+00  0.728968627421411E+00  0.346490463804992E-02
 -0.187381314585725E+00  0.809016994374947E+00  0.101161972713586E-02
 -0.187381314585725E+00  0.876306680043864E+00  0.325466329047202E-03
 -0.187381314585725E+00  0.929776485888251E+00  0.123909300489143E-03
 -0.187381314585725E+00  0.968583161128631E+00  0.593148435315749E-04
 -0.187381314585725E+00  0.992114701314478E+00  0.373927629528755E-04
 -0.187381314585725E+00  0.100000000000000E+01  0.000000000000000E+00
 -0.627905195293134E-01 -0.100000000000000E+01  0.000000000000000E+00
 -0.627905195293134E-01 -0.992114701314478E+00  0.510685199226557E-04
 -0.627905195293134E-01 -0.968583161128631E+00  0.810082226985718E-04
 -0.627905195293134E-01 -0.929776485888251E+00  0.169226986211393E-03
 -0.627905195293134E-01 -0.876306680043864E+00  0.444500015418692E-03
 -0.627905195293134E-01 -0.809016994374947E+00  0.138160216335167E-02
 -0.627905195293134E-01 -0.728968627421411E+00  0.473213364204603E-02
 -0.627905195293134E-01 -0.637423989748690E+00  0.165309661513620E-01
 -0.627905195293134E-01 -0.535826794978997E+00  0.544468634436932E-01
 -0.627905195293134E-01 -0.425779291565073E+00  0.156874909704647E+00
 -0.627905195293134E-01 -0.309016994374947E+00  0.369966979636194E+00
 -0.627905195293134E-01 -0.187381314585725E+00  0.676688612424187E+00
 -0.627905195293134E-01 -0.627905195293134E-01  0.924175780446345E+00
 -0.627905195293134E-01  0.627905195293134E-01  0.924175780446345E+00
 -0.627905195293134E-01  0.187381314585725E+00  0.676688612424187E+00
 -0.627905195293134E-01  0.309016994374947E+00  0.369966979636194E+00
 -0.627905195293134E-01  0.425779291565073E+00  0.156874909704647E+00
 -0.627905195293134E-01  0.535826794978997E+00  0.544468634436932E-01
 -0.627905195293134E-01  0.637423989748690E+00  0.165309661513620E-01
 -0.627905195293134E-01  0.728968627421411E+00  0.473213364204603E-02
 -0.627905195293134E-01  0.809016994374947E+00  0.138160216335167E-02
 -0.627905195293134E-01  0.876306680043864E+00  0.444500015418692E-03
 -0.627905195293134E-01  0.929776485888251E+00  0.169226986211393E-03
 -0.627905195293134E-01  0.968583161128631E+00  0.810082226985718E-04
 -0.627905195293134E-01  0.992114701314478E+00  0.510685199226557E-04
 -0.627905195293134E-01  0.100000000000000E+01  0.000000000000000E+00
  0.627905195293134E-01 -0.100000000000000E+01  0.000000000000000E+00
  0.627905195293134E-01 -0.992114701314478E+00  0.510685199226557E-04
  0.627905195293134E-01 -0.968583161128631E+00  0.810082226985718E-04
  0.627905195293134E-01 -0.929776485888251E+00  0.169226986211393E-03
  0.627905195293134E-01 -0.876306680043864E+00  0.444500015418692E-03
  0.627905195293134E-01 -0.809016994374947E+00  0.138160216335167E-02
  0.627905195293134E-01 -0.728968627421411E+00  0.473213364204603E-02
  0.627905195293134E-01 -0.637423989748690E+00  0.165309661513620E-01
  0.627905195293134E-01 -0.535826794978997E+00  0.544468634436932E-01
  0.627905195293134E-01 -0.425779291565073E+00  0.156874909704647E+00
  0.627905195293134E-01 -0.309016994374947E+00  0.369966979636194E+00
  0.627905195293134E-01 -0.187381314585725E+00  0.676688612424187E+00
  0.627905195293134E-01 -0.627905195293134E-01  0.924175780446345E+00
  0.627905195293134E-01  0.627905195293134E-01  0.924175780446345E+00
  0.627905195293134E-01  0.187381314585725E+00  0.676688612424187E+00
  0.627905195293134E-01  0.309016994374947E+00  0.369966979636194E+00
  0.627905195293134E-01  0.425779291565073E+00  0.156874909704647E+00
  0.627905195293134E-01  0.535826794978997E+00  0.544468634436932E-01
  0.627905195293134E-01  0.637423989748690E+00  0.165309661513620E-01
  0.627905195293134E-01  0.728968627421411E+00  0.473213364204603E-02
  0.627905195293134E-01  0.809016994374947E+00  0.138160216335167E-02
  0.627905195293134E-01  0.876306680043864E+00  0.444500015418692E-03
  0.627905195293134E-01  0.929776485888251E+00  0.169226986211393E-03
  0.627905195293134E-01  0.968583161128631E+00  0.810082226985718E-04
  0.627905195293134E-01  0.992114701314478E+00  0.510685199226557E-04
  0.627905195293134E-01  0.100000000000000E+01  0.000000000000000E+00
  0.187381314585725E+00 -0.100000000000000E+01  0.000000000000000E+00
  0.187381314585725E+00 -0.992114701314478E+00  0.373927629528755E-04
  0.187381314585725E+00 -0.968583161128631E+00  0.593148435315749E-04
  0.187381314585725E+00 -0.929776485888251E+00  0.123909300489143E-03
  0.187381314585725E+00 -0.876306680043864E+00  0.325466329047202E-03
  0.187381314585725E+00 -0.809016994374947E+00  0.101161972713586E-02
  0.187381314585725E+00 -0.728968627421411E+00  0.346490463804992E-02
  0.187381314585725E+00 -0.637423989748690E+00  0.121041005225150E-01
  0.187381314585725E+00 -0.535826794978997E+00  0.398664120550398E-01
  0.187381314585725E+00 -0.425779291565073E+00  0.114865015095870E+00
  0.187381314585725E+00 -0.309016994374947E+00  0.270892667163244E+00
  0.187381314585725E+00 -0.187381314585725E+00  0.495476605071189E+00
  0.187381314585725E+00 -0.627905195293134E-01  0.676688612424187E+00
  0.187381314585725E+00  0.627905195293134E-01  0.676688612424187E+00
  0.187381314585725E+00  0.187381314585725E+00  0.495476605071189E+00
  0.187381314585725E+00  0.309016994374947E+00  0.270892667163245E+00
  0.187381314585725E+00  0.425779291565073E+00  0.114865015095870E+00
  0.187381314585725E+00  0.535826794978997E+00  0.398664120550398E-01
  0.187381314585725E+00  0.637423989748690E+00  0.121041005225150E-01
  0.187381314585725E+00  0.728968627421411E+00  0.346490463804992E-02
  0.187381314585725E+00  0.809016994374947E+00  0.101161972713586E-02
  0.187381314585725E+00  0.876306680043864E+00  0.325466329047202E-03
  0.187381314585725E+00  0.929776485888251E+00  0.123909300489143E-03
  0.187381314585725E+00  0.968583161128631E+00  0.593148435315749E-04
  0.187381314585725E+00  0.992114701314478E+00  0.373927629528755E-04
  0.187381314585725E+00  0.100000000000000E+01  0.000000000000000E+00
  0.309016994374947E+00 -0.100000000000000E+01  0.000000000000000E+00
  0.309016994374947E+00 -0.992114701314478E+00  0.204438013525422E-04
  0.309016994374947E+00 -0.968583161128631E+00  0.324292933353134E-04
  0.309016994374947E+00 -0.929776485888251E+00  0.677451176347936E-04
  0.309016994374947E+00 -0.876306680043864E+00  0.177942694054665E-03
  0.309016994374947E+00 -0.809016994374947E+00  0.553084370147835E-03
  0.309016994374947E+00 -0.728968627421411E+00  0.189437250772472E-02
  0.309016994374947E+00 -0.637423989748690E+00  0.661769302646491E-02
  0.309016994374947E+00 -0.535826794978997E+00  0.217962232349335E-01
  0.309016994374947E+00 -0.425779291565073E+00  0.628003219215486E-01
  0.309016994374947E+00 -0.309016994374947E+00  0.148105554070051E+00
  0.309016994374947E+00 -0.187381314585725E+00  0.270892667163245E+00
  0.309016994374947E+00 -0.627905195293134E-01  0.369966979636194E+00
  0.309016994374947E+00  0.627905195293134E-01  0.369966979636194E+00
  0.309016994374947E+00  0.187381314585725E+00  0.270892667163245E+00
  0.309016994374947E+00  0.309016994374947E+00  0.148105554070051E+00
  0.309016994374947E+00  0.425779291565073E+00  0.628003219215486E-01
  0.309016994374947E+00  0.535826794978997E+00  0.217962232349335E-01
  0.309016994374947E+00  0.637423989748690E+00  0.661769302646491E-02
  0.309016994374947E+00  0.728968627421411E+00  0.189437250772472E-02
  0.309016994374947E+00  0.809016994374947E+00  0.553084370147835E-03
  0.309016994374947E+00  0.876306680043864E+00  0.177942694054665E-03
  0.309016994374947E+00  0.929776485888251E+00  0.677451176347936E-04
  0.309016994374947E+00  0.968583161128631E+00  0.324292933353134E-04
  0.309016994374947E+00  0.992114701314478E+00  0.204438013525422E-04
  0.309016994374947E+00  0.100000000000000E+01  0.000000000000000E+00
  0.425779291565073E+00 -0.100000000000000E+01  0.000000000000000E+00
  0.425779291565073E+00 -0.992114701314478E+00  0.866866414498265E-05
  0.425779291565073E+00 -0.968583161128631E+00  0.137508014060213E-04
  0.425779291565073E+00 -0.929776485888251E+00  0.287255614604835E-04
  0.425779291565073E+00 -0.876306680043864E+00  0.754519878770724E-04
  0.425779291565073E+00 -0.809016994374947E+00  0.234521093507624E-03
  0.425779291565073E+00 -0.728968627421411E+00  0.803259567620094E-03
  0.425779291565073E+00 -0.637423989748690E+00  0.280606122470881E-02
  0.425779291565073E+00 -0.535826794978997E+00  0.924212359504319E-02
  0.425779291565073E+00 -0.425779291565073E+00  0.266288489868837E-01
  0.425779291565073E+00 -0.309016994374947E+00  0.628003219215486E-01