 VARIABLES = "X", "Y", "U0", "U1", "U2", "U3", "U4" 
 ZONE I=          21 , J=          21 ,DATAPACKING=POINT
  -1.00000000000000       -1.00000000000000       0.000000000000000E+000
  0.000000000000000E+000  0.000000000000000E+000  0.000000000000000E+000
  0.000000000000000E+000
  -1.00000000000000      -0.955162973124140       0.000000000000000E+000
  0.000000000000000E+000  0.000000000000000E+000  0.000000000000000E+000
  0.000000000000000E+000
  -1.00000000000000      -0.848039647510822       0.000000000000000E+000
  0.000000000000000E+000  0.000000000000000E+000  0.000000000000000E+000
  0.000000000000000E+000
  -1.00000000000000      -0.741262543272473       0.000000000000000E+000
  0.000000000000000E+000  0.000000000000000E+000  0.000000000000000E+000
  0.000000000000000E+000
  -1.00000000000000      -0.635605065171759       0.000000000000000E+000
  0.000000000000000E+000  0.000000000000000E+000  0.000000000000000E+000
  0.000000000000000E+000
  -1.00000000000000      -0.529610856542781       0.000000000000000E+000
  0.000000000000000E+000  0.000000000000000E+000  0.000000000000000E+000
  0.000000000000000E+000
  -1.00000000000000      -0.423704436434061       0.000000000000000E+000
  0.000000000000000E+000  0.000000000000000E+000  0.000000000000000E+000
  0.000000000000000E+000
  -1.00000000000000      -0.317774315082929       0.000000000000000E+000
  0.000000000000000E+000  0.000000000000000E+000  0.000000000000000E+000
  0.000000000000000E+000
  -1.00000000000000      -0.211850529508475       0.000000000000000E+000
  0.000000000000000E+000  0.000000000000000E+000  0.000000000000000E+000
  0.000000000000000E+000
  -1.00000000000000      -0.105925053478478       0.000000000000000E+000
  0.000000000000000E+000  0.000000000000000E+000  0.000000000000000E+000
  0.000000000000000E+000
  -1.00000000000000      -9.663058790326291E-019  0.000000000000000E+000
  0.000000000000000E+000  0.000000000000000E+000  0.000000000000000E+000
  0.000000000000000E+000
  -1.00000000000000       0.105925053478478       0.000000000000000E+000
  0.000000000000000E+000  0.000000000000000E+000  0.000000000000000E+000
  0.000000000000000E+000
  -1.00000000000000       0.211850529508475       0.000000000000000E+000
  0.000000000000000E+000  0.000000000000000E+000  0.000000000000000E+000
  0.000000000000000E+000
  -1.00000000000000       0.317774315082929       0.000000000000000E+000
  0.000000000000000E+000  0.000000000000000E+000  0.000000000000000E+000
  0.000000000000000E+000
  -1.00000000000000       0.423704436434061       0.000000000000000E+000
  0.000000000000000E+000  0.000000000000000E+000  0.000000000000000E+000
  0.000000000000000E+000
  -1.00000000000000       0.529610856542781       0.000000000000000E+000
  0.000000000000000E+000  0.000000000000000E+000  0.000000000000000E+000
  0.000000000000000E+000
  -1.00000000000000       0.635605065171759       0.000000000000000E+000
  0.000000000000000E+000  0.000000000000000E+000  0.000000000000000E+000
  0.000000000000000E+000
  -1.00000000000000       0.741262543272473       0.000000000000000E+000
  0.000000000000000E+000  0.000000000000000E+000  0.000000000000000E+000
  0.000000000000000E+000
  -1.00000000000000       0.848039647510822       0.000000000000000E+000
  0.000000000000000E+000  0.000000000000000E+000  0.000000000000000E+000
  0.000000000000000E+000
  -1.00000000000000       0.955162973124140       0.000000000000000E+000
  0.000000000000000E+000  0.000000000000000E+000  0.000000000000000E+000
  0.000000000000000E+000
  -1.00000000000000        1.00000000000000       0.000000000000000E+000
  0.000000000000000E+000  0.000000000000000E+000  0.000000000000000E+000
  0.000000000000000E+000
 -0.955162973124140       -1.00000000000000       0.000000000000000E+000
  0.000000000000000E+000  0.000000000000000E+000  0.000000000000000E+000
  0.000000000000000E+000
 -0.955162973124140      -0.955162973124140       0.000000000000000E+000
  7.193657457698627E-004  3.367650808021954E-004  9.808430382637899E-006
 -5.044460279799996E-004
 -0.955162973124140      -0.848039647510822       0.000000000000000E+000
  2.336036129919074E-003  1.157366461018266E-003  2.760764497057274E-005
 -1.682827953802347E-003
 -0.955162973124140      -0.741262543272473       0.000000000000000E+000
  3.657364888152847E-003  2.021300781119595E-003  2.839363532759292E-005
 -2.761482879129565E-003
 -0.955162973124140      -0.635605065171759       0.000000000000000E+000
  4.591972989744800E-003  2.930962176673777E-003  5.065297389678521E-006
 -3.647306182815832E-003
 -0.955162973124140      -0.529610856542781       0.000000000000000E+000
  5.170062610381416E-003  3.863949085565863E-003 -4.317374107724662E-005
 -4.266517652501486E-003
 -0.955162973124140      -0.423704436434061       0.000000000000000E+000
  5.461330969588192E-003  4.737512259693099E-003 -1.089588004124135E-004
 -4.568551198765345E-003
 -0.955162973124140      -0.317774315082929       0.000000000000000E+000
  5.560714789781532E-003  5.462677025270352E-003 -1.788868652919746E-004
 -4.585905076559768E-003
 -0.955162973124140      -0.211850529508475       0.000000000000000E+000
  5.558926423956045E-003  5.981316626402224E-003 -2.384588251288540E-004
 -4.431002470469105E-003
 -0.955162973124140      -0.105925053478478       0.000000000000000E+000
  5.528069851153746E-003  6.281974959412644E-003 -2.773164410195726E-004
 -4.253935302553695E-003
 -0.955162973124140      -9.663058790326291E-019  0.000000000000000E+000
  5.512850253457323E-003  6.379039090769377E-003 -2.906489173305618E-004
 -4.179020390421668E-003
 -0.955162973124140       0.105925053478478       0.000000000000000E+000
  5.528069851153750E-003  6.281974959412641E-003 -2.773164410195693E-004
 -4.253935302553697E-003
 -0.955162973124140       0.211850529508475       0.000000000000000E+000
  5.558926423956044E-003  5.981316626402219E-003 -2.384588251288550E-004
 -4.431002470469111E-003
 -0.955162973124140       0.317774315082929       0.000000000000000E+000
  5.560714789781526E-003  5.462677025270338E-003 -1.788868652919730E-004
 -4.585905076559767E-003
 -0.955162973124140       0.423704436434061       0.000000000000000E+000
  5.461330969588185E-003  4.737512259693081E-003 -1.089588004124129E-004
 -4.568551198765341E-003
 -0.955162973124140       0.529610856542781       0.000000000000000E+000
  5.170062610381408E-003  3.863949085565848E-003 -4.317374107724146E-005
 -4.266517652501476E-003
 -0.955162973124140       0.635605065171759       0.000000000000000E+000
  4.591972989744789E-003  2.930962176673761E-003  5.065297389677887E-006
 -3.647306182815827E-003
 -0.955162973124140       0.741262543272473       0.000000000000000E+000
  3.657364888152841E-003  2.021300781119585E-003  2.839363532759901E-005
 -2.761482879129553E-003
 -0.955162973124140       0.848039647510822       0.000000000000000E+000
  2.336036129919071E-003  1.157366461018257E-003  2.760764497057190E-005
 -1.682827953802346E-003
 -0.955162973124140       0.955162973124140       0.000000000000000E+000
  7.193657457698628E-004  3.367650808021939E-004  9.808430382638221E-006
 -5.044460279799995E-004
 -0.955162973124140        1.00000000000000       0.000000000000000E+000
  0.000000000000000E+000  0.000000000000000E+000  0.000000000000000E+000
  0.000000000000000E+000
 -0.848039647510822       -1.00000000000000       0.000000000000000E+000
  0.000000000000000E+000  0.000000000000000E+000  0.000000000000000E+000
  0.000000000000000E+000
 -0.848039647510822      -0.955162973124140       0.000000000000000E+000
  2.336036129919074E-003  1.157366461018266E-003  2.760764497057274E-005
 -1.682827953802347E-003
 -0.848039647510822      -0.848039647510822       0.000000000000000E+000
  7.590962410903599E-003  3.958983175913039E-003  7.078179725200232E-005
 -5.614866619718759E-003
 -0.848039647510822      -0.741262543272473       0.000000000000000E+000
  1.189991660741641E-002  6.856252519108832E-003  5.067417407762757E-005
 -9.216657804510659E-003
 -0.848039647510822      -0.635605065171759       0.000000000000000E+000
  1.496653714644470E-002  9.843547985206050E-003 -4.425810202561348E-005
 -1.217710751919268E-002
 -0.848039647510822      -0.529610856542781       0.000000000000000E+000
  1.688446615526097E-002  1.285622918826741E-002 -1.963722702378206E-004
 -1.424716612473165E-002
 -0.848039647510822      -0.423704436434061       0.000000000000000E+000
  1.787399700499731E-002  1.564789754343051E-002 -3.677725814416183E-004
 -1.525425367043698E-002
 -0.848039647510822      -0.317774315082929       0.000000000000000E+000
  1.823835578860112E-002  1.795445175266967E-002 -5.203932906614328E-004
 -1.530517974029599E-002
 -0.848039647510822      -0.211850529508475       0.000000000000000E+000
  1.826740168931613E-002  1.960271132479420E-002 -6.306682053373853E-004
 -1.477742616145474E-002
 -0.848039647510822      -0.105925053478478       0.000000000000000E+000
  1.819062929416536E-002  2.055927018031074E-002 -6.933547612092665E-004
 -1.417686624542038E-002
 -0.848039647510822      -9.663058790326291E-019  0.000000000000000E+000
  1.814949385594130E-002  2.086845978026482E-002 -7.131631400861178E-004
 -1.392302794491413E-002
 -0.848039647510822       0.105925053478478       0.000000000000000E+000
  1.819062929416537E-002  2.055927018031074E-002 -6.933547612092739E-004
 -1.417686624542040E-002
 -0.848039647510822       0.211850529508475       0.000000000000000E+000
  1.826740168931613E-002  1.960271132479420E-002 -6.306682053373721E-004
 -1.477742616145473E-002
 -0.848039647510822       0.317774315082929       0.000000000000000E+000
  1.823835578860110E-002  1.795445175266963E-002 -5.203932906614412E-004
 -1.530517974029599E-002
 -0.848039647510822       0.423704436434061       0.000000000000000E+000
  1.787399700499728E-002  1.564789754343045E-002 -3.677725814416217E-004
 -1.525425367043697E-002
 -0.848039647510822       0.529610856542781       0.000000000000000E+000
  1.688446615526094E-002  1.285622918826735E-002 -1.963722702378093E-004
 -1.424716612473162E-002
 -0.848039647510822       0.635605065171759       0.000000000000000E+000
  1.496653714644468E-002  9.843547985206012E-003 -4.425810202559377E-005
 -1.217710751919264E-002
 -0.848039647510822       0.741262543272473       0.000000000000000E+000
  1.189991660741638E-002  6.856252519108793E-003  5.067417407762670E-005
 -9.216657804510652E-003
 -0.848039647510822       0.848039647510822       0.000000000000000E+000
  7.590962410903591E-003  3.958983175913016E-003  7.078179725200054E-005
 -5.614866619718759E-003
 -0.848039647510822       0.955162973124140       0.000000000000000E+000
  2.336036129919074E-003  1.157366461018258E-003  2.760764497057019E-005
 -1.682827953802350E-003
 -0.848039647510822        1.00000000000000       0.000000000000000E+000
  0.000000000000000E+000  0.000000000000000E+000  0.000000000000000E+000
  0.000000000000000E+000
 -0.741262543272473       -1.00000000000000       0.000000000000000E+000
  0.000000000000000E+000  0.000000000000000E+000  0.000000000000000E+000
  0.000000000000000E+000
 -0.741262543272473      -0.955162973124140       0.000000000000000E+000
  3.657364888152847E-003  2.021300781119595E-003  2.839363532759292E-005
 -2.761482879129565E-003
 -0.741262543272473      -0.848039647510822       0.000000000000000E+000
  1.189991660741641E-002  6.856252519108832E-003  5.067417407762757E-005
 -9.216657804510659E-003
 -0.741262543272473      -0.741262543272473       0.000000000000000E+000
  1.870132414285887E-002  1.169250339150335E-002 -4.010171533653846E-005
 -1.513720408769936E-002
 -0.741262543272473      -0.635605065171759       0.000000000000000E+000
  2.359870518938351E-002  1.647872610396856E-002 -2.250027326374617E-004
 -2.001215358690584E-002
 -0.741262543272473      -0.529610856542781       0.000000000000000E+000
  2.672488551338706E-002  2.114161983041469E-002 -4.173160735865068E-004
 -2.342633802397909E-002
 -0.741262543272473      -0.423704436434061       0.000000000000000E+000
  2.840590942468234E-002  2.536806761269275E-002 -5.207528669066409E-004
 -2.508720036613093E-002
 -0.741262543272473      -0.317774315082929       0.000000000000000E+000
  2.910085895178319E-002  2.882405666910660E-002 -4.980867890760868E-004
 -2.516528412179311E-002
 -0.741262543272473      -0.211850529508475       0.000000000000000E+000
  2.924961414926912E-002  3.128813874077534E-002 -3.887226592977850E-004
 -2.428390269357205E-002
 -0.741262543272473      -0.105925053478478       0.000000000000000E+000
  2.919833144623561E-002  3.272078495036577E-002 -2.745044700262919E-004
 -2.328293045642439E-002
 -0.741262543272473      -9.663058790326291E-019  0.000000000000000E+000
  2.915820830033858E-002  3.318488211070265E-002 -2.273230589573519E-004
 -2.286001808478469E-002
 -0.741262543272473       0.105925053478478       0.000000000000000E+000
  2.919833144623562E-002  3.272078495036578E-002 -2.745044700262613E-004
 -2.328293045642438E-002
 -0.741262543272473       0.211850529508475       0.000000000000000E+000
  2.924961414926912E-002  3.128813874077532E-002 -3.887226592977708E-004
 -2.428390269357204E-002
 -0.741262543272473       0.317774315082929       0.000000000000000E+000
  2.910085895178317E-002  2.882405666910656E-002 -4.980867890760398E-004
 -2.516528412179306E-002
 -0.741262543272473       0.423704436434061       0.000000000000000E+000
  2.840590942468229E-002  2.536806761269269E-002 -5.207528669065854E-004
 -2.508720036613086E-002
 -0.741262543272473       0.529610856542781       0.000000000000000E+000
  2.672488551338701E-002  2.114161983041460E-002 -4.173160735865042E-004
 -2.342633802397906E-002
 -0.741262543272473       0.635605065171759       0.000000000000000E+000
  2.359870518938346E-002  1.647872610396849E-002 -2.250027326374346E-004
 -2.001215358690580E-002
 -0.741262543272473       0.741262543272473       0.000000000000000E+000
  1.870132414285882E-002  1.169250339150328E-002 -4.010171533653021E-005
 -1.513720408769933E-002
 -0.741262543272473       0.848039647510822       0.000000000000000E+000
  1.189991660741639E-002  6.856252519108792E-003  5.067417407762679E-005
 -9.216657804510661E-003
 -0.741262543272473       0.955162973124140       0.000000000000000E+000
  3.657364888152845E-003  2.021300781119585E-003  2.839363532759687E-005
 -2.761482879129561E-003
 -0.741262543272473        1.00000000000000       0.000000000000000E+000
  0.000000000000000E+000  0.000000000000000E+000  0.000000000000000E+000
  0.000000000000000E+000
 -0.635605065171759       -1.00000000000000       0.000000000000000E+000
  0.000000000000000E+000  0.000000000000000E+000  0.000000000000000E+000
  0.000000000000000E+000
 -0.635605065171759      -0.955162973124140       0.000000000000000E+000
  4.591972989744800E-003  2.930962176673777E-003  5.065297389678521E-006
 -3.647306182815832E-003
 -0.635605065171759      -0.848039647510822       0.000000000000000E+000
  1.496653714644470E-002  9.843547985206050E-003 -4.425810202561348E-005
 -1.217710751919268E-002
 -0.635605065171759      -0.741262543272473       0.000000000000000E+000
  2.359870518938351E-002  1.647872610396856E-002 -2.250027326374617E-004
 -2.001215358690584E-002
 -0.635605065171759      -0.635605065171759       0.000000000000000E+000
  2.990881828701288E-002  2.269624792198860E-002 -4.458849492590848E-004
 -2.648058993247666E-002
 -0.635605065171759      -0.529610856542781       0.000000000000000E+000
  3.403901360884388E-002  2.845943024929468E-002 -5.081924401777378E-004
 -3.103147677205624E-002
 -0.635605065171759      -0.423704436434061       0.000000000000000E+000
  3.636470113355566E-002  3.350902721568719E-002 -2.478413558452094E-004
 -3.327076578433674E-002
 -0.635605065171759      -0.317774315082929       0.000000000000000E+000
  3.743486970616865E-002  3.756871831641702E-002  3.263603582799632E-004
 -3.341580126492306E-002
 -0.635605065171759      -0.211850529508475       0.000000000000000E+000
  3.778051640493581E-002  4.044966372513625E-002  1.023441526140212E-003
 -3.228448836773973E-002
 -0.635605065171759      -0.105925053478478       0.000000000000000E+000
  3.781935368479962E-002  4.212725009953547E-002  1.579890278967948E-003
 -3.098322967677524E-002
 -0.635605065171759      -9.663058790326291E-019  0.000000000000000E+000
  3.780479995111823E-002  4.267202964157906E-002  1.790173128419309E-003
 -3.043180115517487E-002
 -0.635605065171759       0.105925053478478       0.000000000000000E+000
  3.781935368479962E-002  4.212725009953546E-002  1.579890278967941E-003
 -3.098322967677528E-002
 -0.635605065171759       0.211850529508475       0.000000000000000E+000
  3.778051640493579E-002  4.044966372513620E-002  1.023441526140197E-003
 -3.228448836773976E-002
 -0.635605065171759       0.317774315082929       0.000000000000000E+000
  3.743486970616858E-002  3.756871831641689E-002  3.263603582799135E-004
 -3.341580126492313E-002
 -0.635605065171759       0.423704436434061       0.000000000000000E+000
  3.636470113355556E-002  3.350902721568702E-002 -2.478413558452257E-004
 -3.327076578433673E-002
 -0.635605065171759       0.529610856542781       0.000000000000000E+000
  3.403901360884382E-002  2.845943024929454E-002 -5.081924401777205E-004
 -3.103147677205617E-002
 -0.635605065171759       0.635605065171759       0.000000000000000E+000
  2.990881828701282E-002  2.269624792198850E-002 -4.458849492590619E-004
 -2.648058993247661E-002
 -0.635605065171759       0.741262543272473       0.000000000000000E+000
  2.359870518938345E-002  1.647872610396848E-002 -2.250027326374274E-004
 -2.001215358690579E-002
 -0.635605065171759       0.848039647510822       0.000000000000000E+000
  1.496653714644469E-002  9.843547985206013E-003 -4.425810202559245E-005
 -1.217710751919265E-002
 -0.635605065171759       0.955162973124140       0.000000000000000E+000
  4.591972989744797E-003  2.930962176673764E-003  5.065297389679559E-006
 -3.647306182815832E-003
 -0.635605065171759        1.00000000000000       0.000000000000000E+000
  0.000000000000000E+000  0.000000000000000E+000  0.000000000000000E+000
  0.000000000000000E+000
 -0.529610856542781       -1.00000000000000       0.000000000000000E+000
  0.000000000000000E+000  0.000000000000000E+000  0.000000000000000E+000
  0.000000000000000E+000
 -0.529610856542781      -0.955162973124140       0.000000000000000E+000
  5.170062610381416E-003  3.863949085565863E-003 -4.317374107724662E-005
 -4.266517652501486E-003
 -0.529610856542781      -0.848039647510822       0.000000000000000E+000
  1.688446615526097E-002  1.285622918826741E-002 -1.963722702378206E-004
 -1.424716612473165E-002
 -0.529610856542781      -0.741262543272473       0.000000000000000E+000
  2.672488551338706E-002  2.114161983041469E-002 -4.173160735865068E-004
 -2.342633802397909E-002
 -0.529610856542781      -0.635605065171759       0.000000000000000E+000
  3.403901360884388E-002  2.845943024929468E-002 -5.081924401777378E-004
 -3.103147677205624E-002
 -0.529610856542781      -0.529610856542781       0.000000000000000E+000
  3.894920235007626E-002  3.484912079665053E-002 -1.514085838273847E-004
 -3.643350454738044E-002
 -0.529610856542781      -0.423704436434061       0.000000000000000E+000
  4.182576979130825E-002  4.020294330178750E-002  8.545353717241535E-004
 -3.917778308063143E-002
 -0.529610856542781      -0.317774315082929       0.000000000000000E+000
  4.324713457490950E-002  4.440310117482334E-002  2.394708294184208E-003
 -3.950640873909178E-002
 -0.529610856542781      -0.211850529508475       0.000000000000000E+000
  4.379074603362756E-002  4.735822874939844E-002  4.050639679824761E-003
 -3.834372704210668E-002
 -0.529610856542781      -0.105925053478478       0.000000000000000E+000
  4.392352938733974E-002  4.907871604026520E-002  5.305670309413886E-003
 -3.694178288139666E-002
 -0.529610856542781      -9.663058790326291E-019  0.000000000000000E+000
  4.393574988199674E-002  4.963842406963313E-002  5.770482079420634E-003
 -3.634134116684831E-002
 -0.529610856542781       0.105925053478478       0.000000000000000E+000
  4.392352938733975E-002  4.907871604026516E-002  5.305670309413855E-003
 -3.694178288139673E-002
 -0.529610856542781       0.211850529508475       0.000000000000000E+000
  4.379074603362758E-002  4.735822874939841E-002  4.050639679824812E-003
 -3.834372704210665E-002
 -0.529610856542781       0.317774315082929       0.000000000000000E+000
  4.324713457490944E-002  4.440310117482325E-002  2.394708294184236E-003
 -3.950640873909175E-002
 -0.529610856542781       0.423704436434061       0.000000000000000E+000
  4.182576979130817E-002  4.020294330178733E-002  8.545353717241646E-004
 -3.917778308063140E-002
 -0.529610856542781       0.529610856542781       0.000000000000000E+000
  3.894920235007618E-002  3.484912079665039E-002 -1.514085838273526E-004
 -3.643350454738036E-002
 -0.529610856542781       0.635605065171759       0.000000000000000E+000
  3.403901360884382E-002  2.845943024929453E-002 -5.081924401777299E-004
 -3.103147677205620E-002
 -0.529610856542781       0.741262543272473       0.000000000000000E+000
  2.672488551338700E-002  2.114161983041458E-002 -4.173160735864995E-004
 -2.342633802397905E-002
 -0.529610856542781       0.848039647510822       0.000000000000000E+000
  1.688446615526095E-002  1.285622918826736E-002 -1.963722702377945E-004
 -1.424716612473161E-002
 -0.529610856542781       0.955162973124140       0.000000000000000E+000
  5.170062610381415E-003  3.863949085565851E-003 -4.317374107724302E-005
 -4.266517652501484E-003
 -0.529610856542781        1.00000000000000       0.000000000000000E+000
  0.000000000000000E+000  0.000000000000000E+000  0.000000000000000E+000
  0.000000000000000E+000
 -0.423704436434061       -1.00000000000000       0.000000000000000E+000
  0.000000000000000E+000  0.000000000000000E+000  0.000000000000000E+000
  0.000000000000000E+000
 -0.423704436434061      -0.955162973124140       0.000000000000000E+000
  5.461330969588192E-003  4.737512259693099E-003 -1.089588004124135E-004
 -4.568551198765345E-003
 -0.423704436434061      -0.848039647510822       0.000000000000000E+000
  1.787399700499731E-002  1.564789754343051E-002 -3.677725814416183E-004
 -1.525425367043698E-002
 -0.423704436434061      -0.741262543272473       0.000000000000000E+000
  2.840590942468234E-002  2.536806761269275E-002 -5.207528669066409E-004
 -2.508720036613093E-002
 -0.423704436434061      -0.635605065171759       0.000000000000000E+000
  3.636470113355566E-002  3.350902721568719E-002 -2.478413558452094E-004
 -3.327076578433674E-002
 -0.423704436434061      -0.529610856542781       0.000000000000000E+000
  4.182576979130825E-002  4.020294330178750E-002  8.545353717241535E-004
 -3.917778308063143E-002
 -0.423704436434061      -0.423704436434061       0.000000000000000E+000
  4.510494804487591E-002  4.553554118643022E-002  2.962403793825662E-003
 -4.235142525344803E-002
 -0.423704436434061      -0.317774315082929       0.000000000000000E+000
  4.676057464532634E-002  4.959094274272440E-002  5.797052944644290E-003
 -4.303211722958976E-002
 -0.423704436434061      -0.211850529508475       0.000000000000000E+000
  4.739520568258004E-002  5.240602607797758E-002  8.672822982879261E-003
 -4.213517768429126E-002
 -0.423704436434061      -0.105925053478478       0.000000000000000E+000
  4.753786602443093E-002  5.403957473360656E-002  1.079469887210873E-002
 -4.089987192954282E-002
 -0.423704436434061      -9.663058790326291E-019  0.000000000000000E+000
  4.754407621292075E-002  5.457107486743226E-002  1.157240562037840E-002
 -4.035631669180571E-002
 -0.423704436434061       0.105925053478478       0.000000000000000E+000
  4.753786602443093E-002  5.403957473360656E-002  1.079469887210876E-002
 -4.089987192954282E-002
 -0.423704436434061       0.211850529508475       0.000000000000000E+000
  4.739520568258003E-002  5.240602607797754E-002  8.672822982879302E-003
 -4.213517768429124E-002
 -0.423704436434061       0.317774315082929       0.000000000000000E+000
  4.676057464532630E-002  4.959094274272426E-002  5.797052944644289E-003
 -4.303211722958974E-002
 -0.423704436434061       0.423704436434061       0.000000000000000E+000
  4.510494804487583E-002  4.553554118643010E-002  2.962403793825711E-003
 -4.235142525344794E-002
 -0.423704436434061       0.529610856542781       0.000000000000000E+000
  4.182576979130816E-002  4.020294330178734E-002  8.545353717242079E-004
 -3.917778308063134E-002
 -0.423704436434061       0.635605065171759       0.000000000000000E+000
  3.636470113355555E-002  3.350902721568697E-002 -2.478413558452508E-004
 -3.327076578433674E-002
 -0.423704436434061       0.741262543272473       0.000000000000000E+000
  2.840590942468227E-002  2.536806761269264E-002 -5.207528669066039E-004
 -2.508720036613087E-002
 -0.423704436434061       0.848039647510822       0.000000000000000E+000
  1.787399700499729E-002  1.564789754343046E-002 -3.677725814415835E-004
 -1.525425367043694E-002
 -0.423704436434061       0.955162973124140       0.000000000000000E+000
  5.461330969588187E-003  4.737512259693079E-003 -1.089588004124193E-004
 -4.568551198765352E-003
 -0.423704436434061        1.00000000000000       0.000000000000000E+000
  0.000000000000000E+000  0.000000000000000E+000  0.000000000000000E+000
  0.000000000000000E+000
 -0.317774315082929       -1.00000000000000       0.000000000000000E+000
  0.000000000000000E+000  0.000000000000000E+000  0.000000000000000E+000
  0.000000000000000E+000
 -0.317774315082929      -0.955162973124140       0.000000000000000E+000
  5.560714789781532E-003  5.462677025270352E-003 -1.788868652919746E-004
 -4.585905076559768E-003
 -0.317774315082929      -0.848039647510822       0.000000000000000E+000
  1.823835578860112E-002  1.795445175266967E-002 -5.203932906614328E-004
 -1.530517974029599E-002
 -0.317774315082929      -0.741262543272473       0.000000000000000E+000
  2.910085895178319E-002  2.882405666910660E-002 -4.980867890760868E-004
 -2.516528412179311E-002
 -0.317774315082929      -0.635605065171759       0.000000000000000E+000
  3.743486970616865E-002  3.756871831641702E-002  3.263603582799632E-004
 -3.341580126492306E-002
 -0.317774315082929      -0.529610856542781       0.000000000000000E+000
  4.324713457490950E-002  4.440310117482334E-002  2.394708294184208E-003
 -3.950640873909178E-002
 -0.317774315082929      -0.423704436434061       0.000000000000000E+000
  4.676057464532634E-002  4.959094274272440E-002  5.797052944644290E-003
 -4.303211722958976E-002
 -0.317774315082929      -0.317774315082929       0.000000000000000E+000
  4.847924073697169E-002  5.340476333148435E-002  1.005835743790279E-002
 -4.420734340806502E-002
 -0.317774315082929      -0.211850529508475       0.000000000000000E+000
  4.903019867182211E-002  5.600591247578212E-002  1.422821396628629E-002
 -4.383424132116807E-002
 -0.317774315082929      -0.105925053478478       0.000000000000000E+000
  4.904281469254723E-002  5.750499659490843E-002  1.725200860841450E-002
 -4.299855507608943E-002
 -0.317774315082929      -9.663058790326291E-019  0.000000000000000E+000
  4.898860548628613E-002  5.799180350996065E-002  1.835285044972496E-002
 -4.260418838644069E-002
 -0.317774315082929       0.105925053478478       0.000000000000000E+000
  4.904281469254723E-002  5.750499659490833E-002  1.725200860841438E-002
 -4.299855507608962E-002
 -0.317774315082929       0.211850529508475       0.000000000000000E+000
  4.903019867182212E-002  5.600591247578209E-002  1.422821396628636E-002
 -4.383424132116800E-002
 -0.317774315082929       0.317774315082929       0.000000000000000E+000
  4.847924073697166E-002  5.340476333148424E-002  1.005835743790285E-002
 -4.420734340806496E-002
 -0.317774315082929       0.423704436434061       0.000000000000000E+000
  4.676057464532626E-002  4.959094274272420E-002  5.797052944644257E-003
 -4.303211722958973E-002
 -0.317774315082929       0.529610856542781       0.000000000000000E+000
  4.324713457490940E-002  4.440310117482318E-002  2.394708294184241E-003
 -3.950640873909170E-002
 -0.317774315082929       0.635605065171759       0.000000000000000E+000
  3.743486970616856E-002  3.756871831641685E-002  3.263603582799668E-004
 -3.341580126492304E-002
 -0.317774315082929       0.741262543272473       0.000000000000000E+000
  2.910085895178313E-002  2.882405666910647E-002 -4.980867890760388E-004
 -2.516528412179301E-002
 -0.317774315082929       0.848039647510822       0.000000000000000E+000
  1.823835578860110E-002  1.795445175266961E-002 -5.203932906614193E-004
 -1.530517974029597E-002
 -0.317774315082929       0.955162973124140       0.000000000000000E+000
  5.560714789781531E-003  5.462677025270336E-003 -1.788868652919724E-004
 -4.585905076559768E-003
 -0.317774315082929        1.00000000000000       0.000000000000000E+000
  0.000000000000000E+000  0.000000000000000E+000  0.000000000000000E+000
  0.000000000000000E+000
 -0.211850529508475       -1.00000000000000       0.000000000000000E+000
  0.000000000000000E+000  0.000000000000000E+000  0.000000000000000E+000
  0.000000000000000E+000
 -0.211850529508475      -0.955162973124140       0.000000000000000E+000
  5.558926423956045E-003  5.981316626402224E-003 -2.384588251288540E-004
 -4.431002470469105E-003
 -0.211850529508475      -0.848039647510822       0.000000000000000E+000
  1.826740168931613E-002  1.960271132479420E-002 -6.306682053373853E-004
 -1.477742616145474E-002
 -0.211850529508475      -0.741262543272473       0.000000000000000E+000
  2.924961414926912E-002  3.128813874077534E-002 -3.887226592977850E-004
 -2.428390269357205E-002
 -0.211850529508475      -0.635605065171759       0.000000000000000E+000
  3.778051640493581E-002  4.044966372513625E-002  1.023441526140212E-003
 -3.228448836773973E-002
 -0.211850529508475      -0.529610856542781       0.000000000000000E+000
  4.379074603362756E-002  4.735822874939844E-002  4.050639679824761E-003
 -3.834372704210668E-002
 -0.211850529508475      -0.423704436434061       0.000000000000000E+000