 VARIABLES = "X", "Y", "Sxx0", "Sxx1", "Sxx2", "Sxx3", "Sxx4" 
 ZONE I=          21 , J=          21 ,DATAPACKING=POINT
  -1.00000000000000       -1.00000000000000       0.000000000000000E+000
  0.000000000000000E+000  0.000000000000000E+000  0.000000000000000E+000
  0.000000000000000E+000
  -1.00000000000000      -0.955162973124140       0.000000000000000E+000
 -0.762433498224874       0.264184885491496      -4.048012540226628E-002
 -8.720790218036478E-002
  -1.00000000000000      -0.848039647510822       0.000000000000000E+000
  -2.42817207256045       0.715649965599824      -0.226845392527248     
 -0.309644203929818     
  -1.00000000000000      -0.741262543272473       0.000000000000000E+000
  -3.65501400270626       0.649082889976229      -0.609315539270213     
 -0.554652579888566     
  -1.00000000000000      -0.635605065171759       0.000000000000000E+000
  -4.33611427805797      -7.694137718845728E-002  -1.06937993832169     
 -0.774341156350955     
  -1.00000000000000      -0.529610856542781       0.000000000000000E+000
  -4.52743850071015       -1.34932863670183       -1.34318045619995     
 -0.876870372417533     
  -1.00000000000000      -0.423704436434061       0.000000000000000E+000
  -4.33474816322491       -2.83465801385544       -1.21173138404269     
 -0.776506434424584     
  -1.00000000000000      -0.317774315082929       0.000000000000000E+000
  -3.89497476475810       -4.16865352016739      -0.685650916139264     
 -0.472373140883744     
  -1.00000000000000      -0.211850529508475       0.000000000000000E+000
  -3.37481088008916       -5.12582595474286       2.330521348614779E-003
 -7.076010091860657E-002
  -1.00000000000000      -0.105925053478478       0.000000000000000E+000
  -2.95907324052699       -5.66295406240300       0.554897612559407     
  0.264605357886842     
  -1.00000000000000      -9.663058790326291E-019  0.000000000000000E+000
  -2.80056277154269       -5.83099226953540       0.762351974589248     
  0.394232584458199     
  -1.00000000000000       0.105925053478478       0.000000000000000E+000
  -2.95907324052591       -5.66295406240434       0.554897612569496     
  0.264605357897326     
  -1.00000000000000       0.211850529508475       0.000000000000000E+000
  -3.37481088008916       -5.12582595474636       2.330521345267310E-003
 -7.076010092290747E-002
  -1.00000000000000       0.317774315082929       0.000000000000000E+000
  -3.89497476475460       -4.16865352016228      -0.685650916126323     
 -0.472373140871110     
  -1.00000000000000       0.423704436434061       0.000000000000000E+000
  -4.33474816322236       -2.83465801384993       -1.21173138403197     
 -0.776506434412891     
  -1.00000000000000       0.529610856542781       0.000000000000000E+000
  -4.52743850070747       -1.34932863670183       -1.34318045620092     
 -0.876870372417667     
  -1.00000000000000       0.635605065171759       0.000000000000000E+000
  -4.33611427806335      -7.694137719289258E-002  -1.06937993832651     
 -0.774341156354449     
  -1.00000000000000       0.741262543272473       0.000000000000000E+000
  -3.65501400270518       0.649082889975086      -0.609315539265279     
 -0.554652579879695     
  -1.00000000000000       0.848039647510822       0.000000000000000E+000
  -2.42817207256199       0.715649965597842      -0.226845392527804     
 -0.309644203930221     
  -1.00000000000000       0.955162973124140       0.000000000000000E+000
 -0.762433498225076       0.264184885492134      -4.048012540044760E-002
 -8.720790217834874E-002
  -1.00000000000000        1.00000000000000       0.000000000000000E+000
  0.000000000000000E+000  0.000000000000000E+000  0.000000000000000E+000
  0.000000000000000E+000
 -0.955162973124140       -1.00000000000000       0.000000000000000E+000
 -0.167735369609472       5.812067480812914E-002 -8.905627588498584E-003
 -1.918573847968026E-002
 -0.955162973124140      -0.955162973124140       0.000000000000000E+000
   6.53148840175670      -0.995380373673972       0.353313306377954     
  -1.60617759852921     
 -0.955162973124140      -0.848039647510822       0.000000000000000E+000
   20.6057418757492       -2.40031781029675        1.40061217446966     
  -5.44114488387410     
 -0.955162973124140      -0.741262543272473       0.000000000000000E+000
   30.4998291986303      -0.899026518517099        2.75669383994849     
  -9.13306847224608     
 -0.955162973124140      -0.635605065171759       0.000000000000000E+000
   35.5594491641894        4.52830452804991        3.72971349631665     
  -12.2482257261460     
 -0.955162973124140      -0.529610856542781       0.000000000000000E+000
   36.7694811054146        13.3308078077719        3.20281233402639     
  -14.2499583837921     
 -0.955162973124140      -0.423704436434061       0.000000000000000E+000
   35.4500814510271        23.2990780157969       0.476280702052832     
  -14.7321149667395     
 -0.955162973124140      -0.317774315082929       0.000000000000000E+000
   32.8668462485406        31.9228731098074       -4.02312474503032     
  -13.8419889792394     
 -0.955162973124140      -0.211850529508475       0.000000000000000E+000
   30.1243088158571        37.7734850903182       -8.88986092515337     
  -12.2629255833977     
 -0.955162973124140      -0.105925053478478       0.000000000000000E+000
   28.1094978413144        40.8363908930946       -12.5310467767147     
  -10.8683286738942     
 -0.955162973124140      -9.663058790326291E-019  0.000000000000000E+000
   27.3782798240387        41.7431409321914       -13.8636590087859     
  -10.3234919361576     
 -0.955162973124140       0.105925053478478       0.000000000000000E+000
   28.1094978413149        40.8363908930937       -12.5310467767115     
  -10.8683286738912     
 -0.955162973124140       0.211850529508475       0.000000000000000E+000
   30.1243088158571        37.7734850903165       -8.88986092515527     
  -12.2629255834001     
 -0.955162973124140       0.317774315082929       0.000000000000000E+000
   32.8668462485408        31.9228731098074       -4.02312474502693     
  -13.8419889792364     
 -0.955162973124140       0.423704436434061       0.000000000000000E+000
   35.4500814510277        23.2990780157979       0.476280702055178     
  -14.7321149667368     
 -0.955162973124140       0.529610856542781       0.000000000000000E+000
   36.7694811054156        13.3308078077720        3.20281233402676     
  -14.2499583837915     
 -0.955162973124140       0.635605065171759       0.000000000000000E+000
   35.5594491641878        4.52830452804778        3.72971349631406     
  -12.2482257261482     
 -0.955162973124140       0.741262543272473       0.000000000000000E+000
   30.4998291986307      -0.899026518516821        2.75669383995110     
  -9.13306847224204     
 -0.955162973124140       0.848039647510822       0.000000000000000E+000
   20.6057418757488       -2.40031781029764        1.40061217446938     
  -5.44114488387404     
 -0.955162973124140       0.955162973124140       0.000000000000000E+000
   6.53148840175671      -0.995380373673595       0.353313306378644     
  -1.60617759852848     
 -0.955162973124140        1.00000000000000       0.000000000000000E+000
 -0.167735369609347       5.812067480845069E-002 -8.905627588167368E-003
 -1.918573847940305E-002
 -0.848039647510822       -1.00000000000000       0.000000000000000E+000
 -0.534197855963299       0.157442992431961      -4.990598635599463E-002
 -6.812172486456002E-002
 -0.848039647510822      -0.955162973124140       0.000000000000000E+000
   19.6311001201375       -2.94418652331632        1.18173600911736     
  -5.95606207564231     
 -0.848039647510822      -0.848039647510822       0.000000000000000E+000
   61.9648870496148       -7.08096127899590        4.24567738312921     
  -20.1845048398061     
 -0.848039647510822      -0.741262543272473       0.000000000000000E+000
   91.8225389145629       -2.58623172357077        7.31124100478890     
  -33.9067079977883     
 -0.848039647510822      -0.635605065171759       0.000000000000000E+000
   107.254311533776        13.5205539989879        8.42311445508505     
  -45.5050846158696     
 -0.848039647510822      -0.529610856542781       0.000000000000000E+000
   111.217596644122        39.5709782966002        4.86252004482362     
  -52.8689832526817     
 -0.848039647510822      -0.423704436434061       0.000000000000000E+000
   107.667358562337        69.0373317937426       -4.77555273667434     
  -54.2887724345823     
 -0.848039647510822      -0.317774315082929       0.000000000000000E+000
   100.380508939222        94.5393776627336       -18.9614016132563     
  -50.2096724438836     
 -0.848039647510822      -0.211850529508475       0.000000000000000E+000
   92.6095635767257        111.877997376914       -33.6995665807353     
  -43.3309357969391     
 -0.848039647510822      -0.105925053478478       0.000000000000000E+000
   86.9113265933861        120.989050828919       -44.5708348666394     
  -37.2795433487450     
 -0.848039647510822      -9.663058790326291E-019  0.000000000000000E+000
   84.8480946208769        123.695750210487       -48.5349304248913     
  -34.9122130409407     
 -0.848039647510822       0.105925053478478       0.000000000000000E+000
   86.9113265933863        120.989050828919       -44.5708348666435     
  -37.2795433487495     
 -0.848039647510822       0.211850529508475       0.000000000000000E+000
   92.6095635767251        111.877997376916       -33.6995665807338     
  -43.3309357969381     
 -0.848039647510822       0.317774315082929       0.000000000000000E+000
   100.380508939222        94.5393776627310       -18.9614016132619     
  -50.2096724438888     
 -0.848039647510822       0.423704436434061       0.000000000000000E+000
   107.667358562336        69.0373317937393       -4.77555273667927     
  -54.2887724345874     
 -0.848039647510822       0.529610856542781       0.000000000000000E+000
   111.217596644121        39.5709782966002        4.86252004482470     
  -52.8689832526807     
 -0.848039647510822       0.635605065171759       0.000000000000000E+000
   107.254311533777        13.5205539989889        8.42311445508644     
  -45.5050846158684     
 -0.848039647510822       0.741262543272473       0.000000000000000E+000
   91.8225389145624       -2.58623172357028        7.31124100478746     
  -33.9067079977913     
 -0.848039647510822       0.848039647510822       0.000000000000000E+000
   61.9648870496153       -7.08096127899574        4.24567738312924     
  -20.1845048398057     
 -0.848039647510822       0.955162973124140       0.000000000000000E+000
   19.6311001201377       -2.94418652331659        1.18173600911651     
  -5.95606207564332     
 -0.848039647510822        1.00000000000000       0.000000000000000E+000
 -0.534197855963358       0.157442992431850      -4.990598635637480E-002
 -6.812172486512182E-002
 -0.741262543272473       -1.00000000000000       0.000000000000000E+000
 -0.804103080595376       0.142798235794770      -0.134049418639447     
 -0.122023567575485     
 -0.741262543272473      -0.955162973124140       0.000000000000000E+000
   26.2838754525195       -3.19503713535719        1.87296325190761     
  -11.3368992198337     
 -0.741262543272473      -0.848039647510822       0.000000000000000E+000
   83.0393668048134       -7.26207386505117        5.59191152727312     
  -38.4641890927186     
 -0.741262543272473      -0.741262543272473       0.000000000000000E+000
   123.302358509830      -0.703165067488113        6.64042246989315     
  -64.7376189700733     
 -0.741262543272473      -0.635605065171759       0.000000000000000E+000
   144.525928845841        20.1534029265934        2.84306732550497     
  -87.0095080462970     
 -0.741262543272473      -0.529610856542781       0.000000000000000E+000
   150.722138091715        53.2587707508264       -7.48266191006724     
  -100.914109333306     
 -0.741262543272473      -0.423704436434061       0.000000000000000E+000
   147.234316344159        90.5296377973856       -24.1451245597355     
  -102.701698760276     
 -0.741262543272473      -0.317774315082929       0.000000000000000E+000
   139.092602084574        122.811658724038       -44.4526321101064     
  -93.0236337977734     
 -0.741262543272473      -0.211850529508475       0.000000000000000E+000
   130.412522631717        144.857648343619       -63.8892413241459     
  -77.4577223773694     
 -0.741262543272473      -0.105925053478478       0.000000000000000E+000
   124.152259968014        156.522046769185       -77.7852287978316     
  -63.8390742491337     
 -0.741262543272473      -9.663058790326291E-019  0.000000000000000E+000
   121.916384799644        160.008150542053       -82.8109276902558     
  -58.5100470722384     
 -0.741262543272473       0.105925053478478       0.000000000000000E+000
   124.152259968015        156.522046769187       -77.7852287978259     
  -63.8390742491277     
 -0.741262543272473       0.211850529508475       0.000000000000000E+000
   130.412522631719        144.857648343619       -63.8892413241444     
  -77.4577223773671     
 -0.741262543272473       0.317774315082929       0.000000000000000E+000
   139.092602084578        122.811658724045       -44.4526321100955     
  -93.0236337977611     
 -0.741262543272473       0.423704436434061       0.000000000000000E+000
   147.234316344162        90.5296377973918       -24.1451245597257     
  -102.701698760267     
 -0.741262543272473       0.529610856542781       0.000000000000000E+000
   150.722138091716        53.2587707508268       -7.48266191006994     
  -100.914109333309     
 -0.741262543272473       0.635605065171759       0.000000000000000E+000
   144.525928845839        20.1534029265939        2.84306732550629     
  -87.0095080462960     
 -0.741262543272473       0.741262543272473       0.000000000000000E+000
   123.302358509829      -0.703165067491539        6.64042246989175     
  -64.7376189700731     
 -0.741262543272473       0.848039647510822       0.000000000000000E+000
   83.0393668048121       -7.26207386505238        5.59191152727153     
  -38.4641890927210     
 -0.741262543272473       0.955162973124140       0.000000000000000E+000
   26.2838754525194       -3.19503713535732        1.87296325190863     
  -11.3368992198322     
 -0.741262543272473        1.00000000000000       0.000000000000000E+000
 -0.804103080595229       0.142798235794534      -0.134049418638656     
 -0.122023567574021     
 -0.635605065171759       -1.00000000000000       0.000000000000000E+000
 -0.953945141172753      -1.692710298146060E-002 -0.235263586430773     
 -0.170355054397210     
 -0.635605065171759      -0.955162973124140       0.000000000000000E+000
   26.5424958716511      -0.247053118362682        2.13021456203891     
  -16.7001478537049     
 -0.635605065171759      -0.848039647510822       0.000000000000000E+000
   83.9195561217812        1.59531536298799        4.85822539626378     
  -56.7804300438105     
 -0.635605065171759      -0.741262543272473       0.000000000000000E+000
   124.840564242885        10.8769577994857        1.01304153798012     
  -95.8626397748354     
 -0.635605065171759      -0.635605065171759       0.000000000000000E+000
   146.873398759895        30.6095014518983       -10.6786486405336     
  -129.114905718039     
 -0.635605065171759      -0.529610856542781       0.000000000000000E+000
   154.319754368621        59.6689233046277       -28.6867058365291     
  -149.575201266199     
 -0.635605065171759      -0.423704436434061       0.000000000000000E+000
   152.885490976924        91.8576952870385       -49.6145018371539     
  -151.164361130543     
 -0.635605065171759      -0.317774315082929       0.000000000000000E+000
   147.749962684966        119.760731115684       -70.0412987197575     
  -134.749153349836     
 -0.635605065171759      -0.211850529508475       0.000000000000000E+000
   142.582301023905        138.934836358003       -87.1917595124815     
  -109.131216969038     
 -0.635605065171759      -0.105925053478478       0.000000000000000E+000
   139.254514936511        149.146589711436       -98.7727229824496     
  -86.8518988617049     
 -0.635605065171759      -9.663058790326291E-019  0.000000000000000E+000
   138.171884277799        152.211336942173       -102.897804921886     
  -78.1459220193364     
 -0.635605065171759       0.105925053478478       0.000000000000000E+000
   139.254514936510        149.146589711437       -98.7727229824505     
  -86.8518988617057     
 -0.635605065171759       0.211850529508475       0.000000000000000E+000
   142.582301023902        138.934836357999       -87.1917595124876     
  -109.131216969043     
 -0.635605065171759       0.317774315082929       0.000000000000000E+000
   147.749962684962        119.760731115674       -70.0412987197707     
  -134.749153349854     
 -0.635605065171759       0.423704436434061       0.000000000000000E+000
   152.885490976920        91.8576952870321       -49.6145018371607     
  -151.164361130548     
 -0.635605065171759       0.529610856542781       0.000000000000000E+000
   154.319754368622        59.6689233046237       -28.6867058365286     
  -149.575201266196     
 -0.635605065171759       0.635605065171759       0.000000000000000E+000
   146.873398759895        30.6095014518998       -10.6786486405332     
  -129.114905718039     
 -0.635605065171759       0.741262543272473       0.000000000000000E+000
   124.840564242884        10.8769577994887        1.01304153798413     
  -95.8626397748321     
 -0.635605065171759       0.848039647510822       0.000000000000000E+000
   83.9195561217826        1.59531536298929        4.85822539626506     
  -56.7804300438095     
 -0.635605065171759       0.955162973124140       0.000000000000000E+000
   26.5424958716507      -0.247053118363367        2.13021456203808     
  -16.7001478537056     
 -0.635605065171759        1.00000000000000       0.000000000000000E+000
 -0.953945141173788      -1.692710298222939E-002 -0.235263586431455     
 -0.170355054397742     
 -0.529610856542781       -1.00000000000000       0.000000000000000E+000
 -0.996036470156234      -0.296852300074402      -0.295499700363990     
 -0.192911481931857     
 -0.529610856542781      -0.955162973124140       0.000000000000000E+000
   22.8770151574407        5.89847095015428        1.63372509713540     
  -19.7290408549091     
 -0.529610856542781      -0.848039647510822       0.000000000000000E+000
   72.3360265082116        19.7865055780468        2.06875331564892     
  -67.2482398504206     
 -0.529610856542781      -0.741262543272473       0.000000000000000E+000
   107.679418800335        33.7360504164409       -6.45045745833293     
  -113.948841696083     
 -0.529610856542781      -0.635605065171759       0.000000000000000E+000
   127.019472971516        49.3125689302423       -23.6098404133348     
  -153.868362599375     
 -0.529610856542781      -0.529610856542781       0.000000000000000E+000
   134.518620641169        67.5760619768181       -44.4821379525994     
  -178.253729860437     
 -0.529610856542781      -0.423704436434061       0.000000000000000E+000
   135.660481078101        86.6926860667565       -62.9855358146453     
  -179.515194201791     
 -0.529610856542781      -0.317774315082929       0.000000000000000E+000
   135.141612969382        103.237245882270       -76.0943796201758     
  -158.729038461019     
 -0.529610856542781      -0.211850529508475       0.000000000000000E+000
   135.475515021250        114.678709962308       -84.2173809528707     
  -126.785851841260     
 -0.529610856542781      -0.105925053478478       0.000000000000000E+000
   136.687311623803        120.748222081296       -88.7970580394492     
  -99.1380200692604     
 -0.529610856542781      -9.663058790326291E-019  0.000000000000000E+000
   137.371331039757        122.550445710935       -90.3451671699114     
  -88.3539470502515     
 -0.529610856542781       0.105925053478478       0.000000000000000E+000
   136.687311623803        120.748222081290       -88.7970580394568     
  -99.1380200692682     
 -0.529610856542781       0.211850529508475       0.000000000000000E+000
   135.475515021257        114.678709962310       -84.2173809528636     
  -126.785851841254     
 -0.529610856542781       0.317774315082929       0.000000000000000E+000
   135.141612969380        103.237245882276       -76.0943796201680     
  -158.729038461011     
 -0.529610856542781       0.423704436434061       0.000000000000000E+000
   135.660481078102        86.6926860667519       -62.9855358146465     
  -179.515194201794     
 -0.529610856542781       0.529610856542781       0.000000000000000E+000
   134.518620641169        67.5760619768205       -44.4821379525994     
  -178.253729860436     
 -0.529610856542781       0.635605065171759       0.000000000000000E+000
   127.019472971518        49.3125689302421       -23.6098404133326     
  -153.868362599373     
 -0.529610856542781       0.741262543272473       0.000000000000000E+000
   107.679418800336        33.7360504164387       -6.45045745833710     
  -113.948841696086     
 -0.529610856542781       0.848039647510822       0.000000000000000E+000
   72.3360265082108        19.7865055780462        2.06875331564910     
  -67.2482398504201     
 -0.529610856542781       0.955162973124140       0.000000000000000E+000
   22.8770151574412        5.89847095015473        1.63372509713575     
  -19.7290408549089     
 -0.529610856542781        1.00000000000000       0.000000000000000E+000
 -0.996036470155968      -0.296852300074875      -0.295499700365536     
 -0.192911481933661     
 -0.423704436434061       -1.00000000000000       0.000000000000000E+000
 -0.953644595909480      -0.623624763048198      -0.266580904489391     
 -0.170831415573408     
 -0.423704436434061      -0.955162973124140       0.000000000000000E+000
   17.6382905483460        12.8909683965873       0.321160909943573     
  -18.2042518745491     
 -0.423704436434061      -0.848039647510822       0.000000000000000E+000
   55.7461381787347        40.5292205757071       -2.07944952034095     
  -62.2101777295619     
 -0.423704436434061      -0.741262543272473       0.000000000000000E+000
   82.9681806819583        60.0240706774688       -12.1155303794620     
  -105.823103808514     
 -0.423704436434061      -0.635605065171759       0.000000000000000E+000
   98.0620038577982        71.4901758701639       -27.8036455117421     
  -143.387228362122     
 -0.423704436434061      -0.529610856542781       0.000000000000000E+000
   104.607010726434        78.5067536204767       -42.5671533413532     
  -166.483789548051     
 -0.423704436434061      -0.423704436434061       0.000000000000000E+000
   107.185901088353        83.9265380100529       -50.0269991630267     
  -167.865202613841     
 -0.423704436434061      -0.317774315082929       0.000000000000000E+000
   109.495688782919        88.4653456273132       -49.0219624214663     
  -148.564883495342     
 -0.423704436434061      -0.211850529508475       0.000000000000000E+000
   112.989994421363        91.5643784941178       -43.4220442643196     
  -118.849585452262     
 -0.423704436434061      -0.105925053478478       0.000000000000000E+000
   116.641378000033        93.0227323159013       -38.1963698614266     
  -93.1596493471356     
 -0.423704436434061      -9.663058790326291E-019  0.000000000000000E+000
   118.238801277796        93.3818772567282       -36.2141356300660     
  -83.1493645456743     
 -0.423704436434061       0.105925053478478       0.000000000000000E+000
   116.641378000033        93.0227323159106       -38.1963698614131     
  -93.1596493471176     
 -0.423704436434061       0.211850529508475       0.000000000000000E+000
   112.989994421360        91.5643784941165       -43.4220442643221     
  -118.849585452266     
 -0.423704436434061       0.317774315082929       0.000000000000000E+000
   109.495688782921        88.4653456273056       -49.0219624214739     
  -148.564883495346     
 -0.423704436434061       0.423704436434061       0.000000000000000E+000
   107.185901088354        83.9265380100654       -50.0269991630179     
  -167.865202613832     
 -0.423704436434061       0.529610856542781       0.000000000000000E+000
   104.607010726434        78.5067536204755       -42.5671533413484     
  -166.483789548049     
 -0.423704436434061       0.635605065171759       0.000000000000000E+000
   98.0620038577940        71.4901758701546       -27.8036455117510     
  -143.387228362130     
 -0.423704436434061       0.741262543272473       0.000000000000000E+000
   82.9681806819574        60.0240706774698       -12.1155303794595     
  -105.823103808514     
 -0.423704436434061       0.848039647510822       0.000000000000000E+000
   55.7461381787351        40.5292205757084       -2.07944952033829     
  -62.2101777295597     
 -0.423704436434061       0.955162973124140       0.000000000000000E+000
   17.6382905483450        12.8909683965856       0.321160909941118     
  -18.2042518745514     
 -0.423704436434061        1.00000000000000       0.000000000000000E+000
 -0.953644595910071      -0.623624763049735      -0.266580904491866     
 -0.170831415576277     
 -0.317774315082929       -1.00000000000000       0.000000000000000E+000
 -0.856894448246781      -0.917103774436825      -0.150843201550638     
 -0.103922090994424     
 -0.317774315082929      -0.955162973124140       0.000000000000000E+000
   12.3441156987477        17.8214494668776       -1.43414345435231     
  -12.0488308199695     
 -0.317774315082929      -0.848039647510822       0.000000000000000E+000
   39.0364416117701        55.1799414360637       -6.42306688303709     
  -41.3007975329418     
 -0.317774315082929      -0.741262543272473       0.000000000000000E+000
   58.2341396704641        78.7009495710706       -14.4117858216876     
  -70.6439881398048     
 -0.317774315082929      -0.635605065171759       0.000000000000000E+000
   69.2075953632160        87.5425761979155       -22.0296254308552     
  -96.3977856589898     
 -0.317774315082929      -0.529610856542781       0.000000000000000E+000
   74.3099854717228        87.0420255360803       -23.1093894364216     
  -112.874894607358     
 -0.317774315082929      -0.423704436434061       0.000000000000000E+000
   76.1783385161771        83.2091037121193       -13.3750504283287     
  -115.052580798649     
 -0.317774315082929      -0.317774315082929       0.000000000000000E+000
   76.8523429278270        79.5096564945300        5.42470855993185     
  -103.447908728547     
 -0.317774315082929      -0.211850529508475       0.000000000000000E+000
   77.4366254879522        76.7272282684781        26.4232668570746     
  -84.7632878455741     
 -0.317774315082929      -0.105925053478478       0.000000000000000E+000
   78.0981170514761        74.8197616675771        42.0948866583588     
  -68.4495567725208     
 -0.317774315082929      -9.663058790326291E-019  0.000000000000000E+000
   78.4148831531467        74.0977053250193        47.7793203400894     
  -62.0776429279045     
 -0.317774315082929       0.105925053478478       0.000000000000000E+000
   78.0981170514716        74.8197616675633        42.0948866583364     
  -68.4495567725506     
 -0.317774315082929       0.211850529508475       0.000000000000000E+000
   77.4366254879545        76.7272282684817        26.4232668570815     
  -84.7632878455650     
 -0.317774315082929       0.317774315082929       0.000000000000000E+000
   76.8523429278267        79.5096564945350        5.42470855993783     
  -103.447908728546     
 -0.317774315082929       0.423704436434061       0.000000000000000E+000
   76.1783385161772        83.2091037121109       -13.3750504283397     
  -115.052580798656     
 -0.317774315082929       0.529610856542781       0.000000000000000E+000
   74.3099854717179        87.0420255360763       -23.1093894364274     
  -112.874894607362     
 -0.317774315082929       0.635605065171759       0.000000000000000E+000
   69.2075953632153        87.5425761979180       -22.0296254308532     
  -96.3977856589910     
 -0.317774315082929       0.741262543272473       0.000000000000000E+000
   58.2341396704652        78.7009495710709       -14.4117858216847     
  -70.6439881398008     
 -0.317774315082929       0.848039647510822       0.000000000000000E+000
   39.0364416117700        55.1799414360620       -6.42306688304057     
  -41.3007975329450     
 -0.317774315082929       0.955162973124140       0.000000000000000E+000
   12.3441156987480        17.8214494668775       -1.43414345435186     
  -12.0488308199692     
 -0.317774315082929        1.00000000000000       0.000000000000000E+000
 -0.856894448245805      -0.917103774436707      -0.150843201549922     
 -0.103922090993803     
 -0.211850529508475       -1.00000000000000       0.000000000000000E+000
 -0.742458393619615       -1.12768171004343       5.127146966952515E-004
 -1.556722220209345E-002
 -0.211850529508475      -0.955162973124140       0.000000000000000E+000
   8.00243939350031        19.6117815049814       -3.04297345787828     
  -3.72533122805291     
 -0.211850529508475      -0.848039647510822       0.000000000000000E+000
   25.4299955317812        60.4573206729748       -9.89964196380476     
  -12.9007070652805     
 -0.211850529508475      -0.741262543272473       0.000000000000000E+000
   38.3830562664083        85.2602775512075       -14.2621595411283     
  -22.5710753915411     
 -0.211850529508475      -0.635605065171759       0.000000000000000E+000
   46.4164857965772        92.7527208459972       -11.7138603670536     
  -31.9341965099936     
 -0.211850529508475      -0.529610856542781       0.000000000000000E+000
   50.1403332232050        88.8867676350606        2.59956699240706     
  -39.2712823843060     
 -0.211850529508475      -0.423704436434061       0.000000000000000E+000