 VARIABLES = "X", "U0", "U1", "U2", "U3" 
 ZONE I=          21 ,DATAPACKING=POINT
  -1.00000000000000       0.000000000000000E+000  0.000000000000000E+000
  0.000000000000000E+000  0.000000000000000E+000
 -0.968133451622095       1.605228055185612E-009  2.445123028998250E-004
  2.405373591062529E-003  8.234568720093944E-003
 -0.881334751433768       1.125351747192591E-007  1.349014480768030E-003
  1.020531851953655E-002  3.153336656150211E-002
 -0.764271786586648       4.785117392129009E-006  6.267612648716408E-003
  2.842564145761834E-002  6.779785817309837E-002
 -0.653642386938342       1.234098040866796E-004  2.148592451061753E-002
  6.107687261024700E-002  0.109938499519896     
 -0.545511771864039       1.930454136227709E-003  5.934201176011662E-002
  0.114162926988225       0.158992778745143     
 -0.436369536137632       1.831563888873418E-002  0.137317358508540     
  0.191303340246203       0.213868396233318     
 -0.327180849161556       0.105399224561864       0.263810652769130     
  0.285855469082098       0.268724583037926     
 -0.218154949867251       0.367879441171443       0.420463095451016     
  0.380688237172487       0.316051702843476     
 -0.109079894803258       0.778800783071405       0.556409239424073     
  0.452151050000402       0.348331844436024     
  6.199650627245017E-018   1.00000000000000       0.610915754251867     
  0.478843287054901       0.359803862558476     
  0.109079894803258       0.778800783071405       0.556409239424074     
  0.452151050000402       0.348331844436024     
  0.218154949867251       0.367879441171443       0.420463095451016     
  0.380688237172487       0.316051702843476     
  0.327180849161556       0.105399224561864       0.263810652769130     
  0.285855469082098       0.268724583037925     
  0.436369536137632       1.831563888873421E-002  0.137317358508540     
  0.191303340246203       0.213868396233318     
  0.545511771864039       1.930454136227709E-003  5.934201176011661E-002
  0.114162926988225       0.158992778745143     
  0.653642386938342       1.234098040866793E-004  2.148592451061754E-002
  6.107687261024697E-002  0.109938499519896     
  0.764271786586648       4.785117392129009E-006  6.267612648716410E-003
  2.842564145761834E-002  6.779785817309834E-002
  0.881334751433768       1.125351747192591E-007  1.349014480768029E-003
  1.020531851953655E-002  3.153336656150212E-002
  0.968133451622095       1.605228055185617E-009  2.445123028998244E-004
  2.405373591062528E-003  8.234568720093942E-003
   1.00000000000000       0.000000000000000E+000  0.000000000000000E+000
  0.000000000000000E+000  0.000000000000000E+000
