 VARIABLES = "X", "t = 0", "t = 1", "t = 2", "t = 4" 
 ZONE I=          21 ,DATAPACKING=POINT
  -1.00000000000000      -8.640112857944526E-004  7.734260979880597E-003
  7.468674825508761E-002  0.257812075081541     
 -0.968133451622095       4.534630289442070E-004  8.051723333352431E-003
  7.709656793696058E-002  0.259571391548787     
 -0.881334751433768      -5.194594173275903E-004  1.998284267465140E-002
  0.108894541675100       0.281292857825354     
 -0.764271786586648       8.154156685316622E-004  7.506771194884994E-002
  0.215179281772595       0.343391327744183     
 -0.653642386938342       4.230261081528644E-003  0.220028500074825     
  0.386138069275477       0.419240555930449     
 -0.545511771864039       3.644343065735099E-002  0.507665139888409     
  0.600406107487170       0.484293854175577     
 -0.436369536137632       0.323831684335261       0.939869529480547     
  0.804371347383351       0.512825842271266     
 -0.327180849161556        1.48865135562202        1.35324745705635     
  0.901048191519727       0.480294410158454     
 -0.218154949867251        3.39953677921620        1.43709849381733     
  0.800032435643405       0.375818424232298     
 -0.109079894803258        3.47366281688076       0.950324068846814     
  0.475088386803302       0.206937806344300     
  6.199650627245017E-018 -4.066191827689636E-015  2.775557561562891E-017
 -3.816391647148976E-016 -1.783295733304158E-015
  0.109079894803258       -3.47366281688077      -0.950324068846819     
 -0.475088386803308      -0.206937806344305     
  0.218154949867251       -3.39953677921620       -1.43709849381733     
 -0.800032435643406      -0.375818424232299     
  0.327180849161556       -1.48865135562202       -1.35324745705635     
 -0.901048191519724      -0.480294410158453     
  0.436369536137632      -0.323831684335260      -0.939869529480545     
 -0.804371347383349      -0.512825842271264     
  0.545511771864039      -3.644343065735123E-002 -0.507665139888409     
 -0.600406107487170      -0.484293854175576     
  0.653642386938342      -4.230261081528589E-003 -0.220028500074825     
 -0.386138069275477      -0.419240555930448     
  0.764271786586648      -8.154156685316680E-004 -7.506771194884999E-002
 -0.215179281772594      -0.343391327744182     
  0.881334751433768       5.194594173275924E-004 -1.998284267465144E-002
 -0.108894541675100      -0.281292857825354     
  0.968133451622095      -4.534630289442096E-004 -8.051723333352412E-003
 -7.709656793696057E-002 -0.259571391548787     
   1.00000000000000       8.640112857944567E-004 -7.734260979880600E-003
 -7.468674825508768E-002 -0.257812075081542     
