 VARIABLES = "x1", "x2"
 ZONE I=         201 F=POINT
   1.0000000000000000        0.0000000000000000     
  0.99950656036573160        3.1410759078128292E-002
  0.99802672842827156        6.2790519529313374E-002
  0.99556196460308000        9.4108313318514311E-002
  0.99211470131447788       0.12533323356430426     
  0.98768834059513777       0.15643446504023087     
  0.98228725072868872       0.18738131458572460     
  0.97591676193874743       0.21814324139654254     
  0.96858316112863108       0.24868988716485479     
  0.96029368567694307       0.27899110603922928     
  0.95105651629515353       0.30901699437494740     
  0.94088076895422545       0.33873792024529137     
  0.92977648588825146       0.36812455268467792     
  0.91775462568398114       0.39714789063478062     
  0.90482705246601958       0.42577929156507266     
  0.89100652418836790       0.45399049973954675     
  0.87630668004386358       0.48175367410171532     
  0.86074202700394364       0.50904141575037132     
  0.84432792550201508       0.53582679497899666     
  0.82708057427456183       0.56208337785213058     
  0.80901699437494745       0.58778525229247314     
  0.79015501237569030       0.61290705365297649     
  0.77051324277578925       0.63742398974868963     
  0.75011106963045959       0.66131186532365183     
  0.72896862742141155       0.68454710592868862     
  0.70710678118654757       0.70710678118654746     
  0.68454710592868873       0.72896862742141155     
  0.66131186532365194       0.75011106963045948     
  0.63742398974868975       0.77051324277578914     
  0.61290705365297649       0.79015501237569030     
  0.58778525229247325       0.80901699437494734     
  0.56208337785213069       0.82708057427456172     
  0.53582679497899666       0.84432792550201508     
  0.50904141575037132       0.86074202700394364     
  0.48175367410171521       0.87630668004386358     
  0.45399049973954680       0.89100652418836790     
  0.42577929156507266       0.90482705246601958     
  0.39714789063478056       0.91775462568398114     
  0.36812455268467809       0.92977648588825135     
  0.33873792024529148       0.94088076895422545     
  0.30901699437494745       0.95105651629515353     
  0.27899110603922944       0.96029368567694307     
  0.24868988716485474       0.96858316112863108     
  0.21814324139654268       0.97591676193874732     
  0.18738131458572471       0.98228725072868861     
  0.15643446504023092       0.98768834059513777     
  0.12533323356430448       0.99211470131447776     
   9.4108313318514283E-002  0.99556196460308000     
   6.2790519529313513E-002  0.99802672842827156     
   3.1410759078128396E-002  0.99950656036573160     
   6.1232339957367660E-017   1.0000000000000000     
  -3.1410759078128278E-002  0.99950656036573160     
  -6.2790519529313402E-002  0.99802672842827156     
  -9.4108313318514394E-002  0.99556196460308000     
 -0.12533323356430415       0.99211470131447788     
 -0.15643446504023081       0.98768834059513777     
 -0.18738131458572460       0.98228725072868872     
 -0.21814324139654237       0.97591676193874743     
 -0.24868988716485485       0.96858316112863108     
 -0.27899110603922916       0.96029368567694307     
 -0.30901699437494717       0.95105651629515364     
 -0.33873792024529137       0.94088076895422545     
 -0.36812455268467775       0.92977648588825146     
 -0.39714789063478068       0.91775462568398114     
 -0.42577929156507277       0.90482705246601947     
 -0.45399049973954675       0.89100652418836790     
 -0.48175367410171538       0.87630668004386347     
 -0.50904141575037132       0.86074202700394364     
 -0.53582679497899677       0.84432792550201496     
 -0.56208337785213058       0.82708057427456183     
 -0.58778525229247303       0.80901699437494745     
 -0.61290705365297660       0.79015501237569030     
 -0.63742398974868963       0.77051324277578925     
 -0.66131186532365172       0.75011106963045970     
 -0.68454710592868873       0.72896862742141155     
 -0.70710678118654746       0.70710678118654757     
 -0.72896862742141133       0.68454710592868884     
 -0.75011106963045959       0.66131186532365194     
 -0.77051324277578914       0.63742398974868986     
 -0.79015501237569041       0.61290705365297637     
 -0.80901699437494734       0.58778525229247325     
 -0.82708057427456172       0.56208337785213081     
 -0.84432792550201485       0.53582679497899699     
 -0.86074202700394375       0.50904141575037110     
 -0.87630668004386358       0.48175367410171521     
 -0.89100652418836779       0.45399049973954686     
 -0.90482705246601935       0.42577929156507288     
 -0.91775462568398092       0.39714789063478106     
 -0.92977648588825135       0.36812455268467814     
 -0.94088076895422545       0.33873792024529131     
 -0.95105651629515353       0.30901699437494751     
 -0.96029368567694295       0.27899110603922955     
 -0.96858316112863097       0.24868988716485524     
 -0.97591676193874732       0.21814324139654276     
 -0.98228725072868872       0.18738131458572457     
 -0.98768834059513766       0.15643446504023098     
 -0.99211470131447776       0.12533323356430454     
 -0.99556196460308000        9.4108313318514353E-002
 -0.99802672842827156        6.2790519529313582E-002
 -0.99950656036573160        3.1410759078128236E-002
  -1.0000000000000000        1.2246467991473532E-016
 -0.99950656036573160       -3.1410759078127994E-002
 -0.99802672842827156       -6.2790519529313346E-002
 -0.99556196460308000       -9.4108313318514103E-002
 -0.99211470131447788      -0.12533323356430429     
 -0.98768834059513777      -0.15643446504023073     
 -0.98228725072868861      -0.18738131458572477     
 -0.97591676193874743      -0.21814324139654251     
 -0.96858316112863119      -0.24868988716485457     
 -0.96029368567694318      -0.27899110603922889     
 -0.95105651629515364      -0.30901699437494728     
 -0.94088076895422545      -0.33873792024529148     
 -0.92977648588825146      -0.36812455268467792     
 -0.91775462568398125      -0.39714789063478040     
 -0.90482705246601969      -0.42577929156507227     
 -0.89100652418836768      -0.45399049973954708     
 -0.87630668004386347      -0.48175367410171538     
 -0.86074202700394364      -0.50904141575037121     
 -0.84432792550201519      -0.53582679497899643     
 -0.82708057427456205      -0.56208337785213025     
 -0.80901699437494778      -0.58778525229247269     
 -0.79015501237569030      -0.61290705365297660     
 -0.77051324277578925      -0.63742398974868963     
 -0.75011106963045970      -0.66131186532365172     
 -0.72896862742141177      -0.68454710592868839     
 -0.70710678118654791      -0.70710678118654713     
 -0.68454710592868862      -0.72896862742141155     
 -0.66131186532365194      -0.75011106963045948     
 -0.63742398974868952      -0.77051324277578936     
 -0.61290705365297649      -0.79015501237569041     
 -0.58778525229247325      -0.80901699437494734     
 -0.56208337785213092      -0.82708057427456161     
 -0.53582679497899632      -0.84432792550201530     
 -0.50904141575037110      -0.86074202700394375     
 -0.48175367410171527      -0.87630668004386358     
 -0.45399049973954692      -0.89100652418836779     
 -0.42577929156507216      -0.90482705246601980     
 -0.39714789063478029      -0.91775462568398125     
 -0.36812455268467781      -0.92977648588825146     
 -0.33873792024529137      -0.94088076895422545     
 -0.30901699437494756      -0.95105651629515353     
 -0.27899110603922961      -0.96029368567694295     
 -0.24868988716485443      -0.96858316112863119     
 -0.21814324139654237      -0.97591676193874743     
 -0.18738131458572463      -0.98228725072868872     
 -0.15643446504023104      -0.98768834059513766     
 -0.12533323356430459      -0.99211470131447776     
  -9.4108313318513964E-002 -0.99556196460308000     
  -6.2790519529313207E-002 -0.99802672842827156     
  -3.1410759078128299E-002 -0.99950656036573160     
  -1.8369701987210297E-016  -1.0000000000000000     
   3.1410759078127931E-002 -0.99950656036573160     
   6.2790519529312833E-002 -0.99802672842827156     
   9.4108313318514492E-002 -0.99556196460308000     
  0.12533323356430423      -0.99211470131447788     
  0.15643446504023067      -0.98768834059513777     
  0.18738131458572427      -0.98228725072868872     
  0.21814324139654201      -0.97591676193874755     
  0.24868988716485493      -0.96858316112863108     
  0.27899110603922922      -0.96029368567694307     
  0.30901699437494723      -0.95105651629515364     
  0.33873792024529104      -0.94088076895422557     
  0.36812455268467742      -0.92977648588825157     
  0.39714789063477995      -0.91775462568398147     
  0.42577929156507183      -0.90482705246601991     
  0.45399049973954581      -0.89100652418836834     
  0.48175367410171571      -0.87630668004386336     
  0.50904141575037154      -0.86074202700394342     
  0.53582679497899677      -0.84432792550201496     
  0.56208337785213058      -0.82708057427456183     
  0.58778525229247292      -0.80901699437494756     
  0.61290705365297615      -0.79015501237569064     
  0.63742398974868930      -0.77051324277578959     
  0.66131186532365127      -0.75011106963046004     
  0.68454710592868795      -0.72896862742141211     
  0.70710678118654680      -0.70710678118654835     
  0.72896862742141122      -0.68454710592868895     
  0.75011106963045970      -0.66131186532365160     
  0.77051324277578936      -0.63742398974868963     
  0.79015501237569030      -0.61290705365297649     
  0.80901699437494734      -0.58778525229247336     
  0.82708057427456161      -0.56208337785213092     
  0.84432792550201474      -0.53582679497899710     
  0.86074202700394320      -0.50904141575037198     
  0.87630668004386314      -0.48175367410171610     
  0.89100652418836779      -0.45399049973954697     
  0.90482705246601935      -0.42577929156507299     
  0.91775462568398125      -0.39714789063478034     
  0.92977648588825146      -0.36812455268467786     
  0.94088076895422545      -0.33873792024529142     
  0.95105651629515353      -0.30901699437494762     
  0.96029368567694295      -0.27899110603922966     
  0.96858316112863097      -0.24868988716485535     
  0.97591676193874721      -0.21814324139654331     
  0.98228725072868872      -0.18738131458572468     
  0.98768834059513766      -0.15643446504023112     
  0.99211470131447776      -0.12533323356430465     
  0.99556196460308000       -9.4108313318514908E-002
  0.99802672842827156       -6.2790519529313263E-002
  0.99950656036573160       -3.1410759078128361E-002
   1.0000000000000000       -2.4492935982947064E-016
