 VARIABLES = "x1", "x2"
 ZONE I=         201 F=POINT
   1.2247448713915889        1.2247448713915892     
   1.2463512944765387        1.2463512944765389     
   1.2667277193076556        1.2667277193076558     
   1.2858540368137066        1.2858540368137068     
   1.3037113716284618        1.3037113716284618     
   1.3202821007184009        1.3202821007184011     
   1.3355498707745208        1.3355498707745210     
   1.3494996143510762        1.3494996143510765     
   1.3621175647353301        1.3621175647353303     
   1.3733912695336368        1.3733912695336370     
   1.3833096029604508        1.3833096029604510     
   1.3918627768181355        1.3918627768181357     
   1.3990423501567302        1.3990423501567304     
   1.4048412376041501        1.4048412376041504     
   1.4092537163585928        1.4092537163585930     
   1.4122754318362523        1.4122754318362525     
   1.4139034019687688        1.4139034019687691     
   1.4141360201461688        1.4141360201461690     
   1.4129730568023950        1.4129730568023953     
   1.4104156596418618        1.4104156596418620     
   1.4064663525068084        1.4064663525068086     
   1.4011290328865711        1.4011290328865713     
   1.3944089680712328        1.3944089680712330     
   1.3863127899534435        1.3863127899534438     
   1.3768484884835415        1.3768484884835417     
   1.3660254037844388        1.3660254037844390     
   1.3538542169340462        1.3538542169340464     
   1.3403469394243404        1.3403469394243406     
   1.3255169013074697        1.3255169013074699     
   1.3093787380406035        1.3093787380406037     
   1.2919483760425021        1.2919483760425021     
   1.2732430169760645        1.2732430169760645     
   1.2532811207723635        1.2532811207723638     
   1.2320823874129239        1.2320823874129241     
   1.2096677374882168        1.2096677374882170     
   1.1860592915515651        1.1860592915515653     
   1.1612803482888252        1.1612803482888254     
   1.1353553615254000        1.1353553615254002     
   1.1083099160932632        1.1083099160932632     
   1.0801707025818199        1.0801707025818201     
   1.0509654909975177        1.0509654909975179     
   1.0207231033582027        1.0207231033582027     
  0.98947338524926631       0.98947338524926642     
  0.95724717636965884       0.95724717636965895     
  0.92407628009682652       0.92407628009682674     
  0.88999343210061999       0.88999343210062021     
  0.85503226803713961       0.85503226803713972     
  0.81922729035440256       0.81922729035440267     
  0.78261383424259601       0.78261383424259612     
  0.74522803276250482       0.74522803276250493     
  0.70710678118654757       0.70710678118654768     
  0.66828770058759590       0.66828770058759601     
  0.62880910071151574       0.62880910071151586     
  0.58870994217007633       0.58870994217007633     
  0.54802979799152796       0.54802979799152796     
  0.50680881456680082       0.50680881456680094     
  0.46508767202986617       0.46508767202986628     
  0.42290754411135334       0.42290754411135340     
  0.38031005750504865       0.38031005750504870     
  0.33733725078737664       0.33733725078737670     
  0.29403153293039747       0.29403153293039752     
  0.25043564144927255       0.25043564144927255     
  0.20659260022549919       0.20659260022549922     
  0.16254567704752948       0.16254567704752951     
  0.11833834091069159       0.11833834091069161     
   7.4014219118536256E-002   7.4014219118536270E-002
   2.9617054227955325E-002   2.9617054227955329E-002
  -1.4809339119437794E-002  -1.4809339119437796E-002
  -5.9221117437073645E-002  -5.9221117437073652E-002
 -0.10357445166165076      -0.10357445166165077     
 -0.14782557040713307      -0.14782557040713309     
 -0.19193080316182143      -0.19193080316182146     
 -0.23584662338587514      -0.23584662338587520     
 -0.27952969146675494      -0.27952969146675494     
 -0.32293689749018617      -0.32293689749018623     
 -0.36602540378443843      -0.36602540378443849     
 -0.40875268719593766      -0.40875268719593771     
 -0.45107658105448528      -0.45107658105448534     
 -0.49295531678666704      -0.49295531678666710     
 -0.53434756513639758      -0.53434756513639770     
 -0.57521247695190103      -0.57521247695190114     
 -0.61550972349889743      -0.61550972349889743     
 -0.65519953626018945      -0.65519953626018956     
 -0.69424274618239257      -0.69424274618239268     
 -0.73260082233105506      -0.73260082233105517     
 -0.77023590991604596      -0.77023590991604607     
 -0.80711086764965811      -0.80711086764965823     
 -0.84318930440057582      -0.84318930440057605     
 -0.87843561510752954      -0.87843561510752965     
 -0.91281501591718872      -0.91281501591718883     
 -0.94629357851162965      -0.94629357851162987     
 -0.97883826359148796      -0.97883826359148807     
  -1.0104169534817573       -1.0104169534817573     
  -1.0409984838280575       -1.0409984838280577     
  -1.0705526743520897       -1.0705526743520899     
  -1.0990503586359264       -1.0990503586359266     
  -1.1264634129057476       -1.1264634129057478     
  -1.1527647837866071       -1.1527647837866073     
  -1.1779285150008476       -1.1779285150008478     
  -1.2019297729838159       -1.2019297729838161     
  -1.2247448713915887       -1.2247448713915889     
  -1.2463512944765385       -1.2463512944765387     
  -1.2667277193076556       -1.2667277193076558     
  -1.2858540368137064       -1.2858540368137066     
  -1.3037113716284618       -1.3037113716284618     
  -1.3202821007184009       -1.3202821007184011     
  -1.3355498707745208       -1.3355498707745210     
  -1.3494996143510762       -1.3494996143510765     
  -1.3621175647353301       -1.3621175647353303     
  -1.3733912695336365       -1.3733912695336368     
  -1.3833096029604510       -1.3833096029604512     
  -1.3918627768181357       -1.3918627768181360     
  -1.3990423501567302       -1.3990423501567304     
  -1.4048412376041501       -1.4048412376041504     
  -1.4092537163585928       -1.4092537163585930     
  -1.4122754318362523       -1.4122754318362525     
  -1.4139034019687686       -1.4139034019687688     
  -1.4141360201461686       -1.4141360201461688     
  -1.4129730568023950       -1.4129730568023953     
  -1.4104156596418618       -1.4104156596418620     
  -1.4064663525068084       -1.4064663525068086     
  -1.4011290328865711       -1.4011290328865713     
  -1.3944089680712328       -1.3944089680712330     
  -1.3863127899534435       -1.3863127899534438     
  -1.3768484884835415       -1.3768484884835417     
  -1.3660254037844388       -1.3660254037844390     
  -1.3538542169340462       -1.3538542169340464     
  -1.3403469394243404       -1.3403469394243406     
  -1.3255169013074695       -1.3255169013074697     
  -1.3093787380406035       -1.3093787380406037     
  -1.2919483760425021       -1.2919483760425021     
  -1.2732430169760645       -1.2732430169760647     
  -1.2532811207723633       -1.2532811207723635     
  -1.2320823874129236       -1.2320823874129239     
  -1.2096677374882170       -1.2096677374882172     
  -1.1860592915515651       -1.1860592915515653     
  -1.1612803482888248       -1.1612803482888250     
  -1.1353553615253995       -1.1353553615253997     
  -1.1083099160932628       -1.1083099160932630     
  -1.0801707025818199       -1.0801707025818199     
  -1.0509654909975177       -1.0509654909975179     
  -1.0207231033582027       -1.0207231033582029     
 -0.98947338524926598      -0.98947338524926609     
 -0.95724717636965861      -0.95724717636965873     
 -0.92407628009682652      -0.92407628009682674     
 -0.88999343210061999      -0.88999343210062021     
 -0.85503226803713972      -0.85503226803713983     
 -0.81922729035440223      -0.81922729035440245     
 -0.78261383424259545      -0.78261383424259556     
 -0.74522803276250471      -0.74522803276250482     
 -0.70710678118654779      -0.70710678118654791     
 -0.66828770058759623      -0.66828770058759634     
 -0.62880910071151652      -0.62880910071151663     
 -0.58870994217007622      -0.58870994217007633     
 -0.54802979799152773      -0.54802979799152785     
 -0.50680881456680105      -0.50680881456680116     
 -0.46508767202986656      -0.46508767202986667     
 -0.42290754411135384      -0.42290754411135395     
 -0.38031005750504848      -0.38031005750504854     
 -0.33733725078737659      -0.33733725078737664     
 -0.29403153293039741      -0.29403153293039747     
 -0.25043564144927299      -0.25043564144927305     
 -0.20659260022549966      -0.20659260022549969     
 -0.16254567704753059      -0.16254567704753062     
 -0.11833834091069308      -0.11833834091069309     
  -7.4014219118537741E-002  -7.4014219118537755E-002
  -2.9617054227954853E-002  -2.9617054227954857E-002
   1.4809339119438264E-002   1.4809339119438268E-002
   5.9221117437073645E-002   5.9221117437073652E-002
  0.10357445166165076       0.10357445166165077     
  0.14782557040713282       0.14782557040713284     
  0.19193080316182057       0.19193080316182060     
  0.23584662338587445       0.23584662338587448     
  0.27952969146675405       0.27952969146675410     
  0.32293689749018484       0.32293689749018489     
  0.36602540378443693       0.36602540378443699     
  0.40875268719593744       0.40875268719593749     
  0.45107658105448550       0.45107658105448561     
  0.49295531678666737       0.49295531678666743     
  0.53434756513639736       0.53434756513639747     
  0.57521247695190092       0.57521247695190103     
  0.61550972349889710       0.61550972349889721     
  0.65519953626018923       0.65519953626018934     
  0.69424274618239123       0.69424274618239135     
  0.73260082233105395       0.73260082233105406     
  0.77023590991604596       0.77023590991604607     
  0.80711086764965800       0.80711086764965811     
  0.84318930440057682       0.84318930440057693     
  0.87843561510752977       0.87843561510752999     
  0.91281501591718861       0.91281501591718872     
  0.94629357851162965       0.94629357851162987     
  0.97883826359148784       0.97883826359148796     
   1.0104169534817573        1.0104169534817573     
   1.0409984838280570        1.0409984838280570     
   1.0705526743520895        1.0705526743520897     
   1.0990503586359264        1.0990503586359264     
   1.1264634129057474        1.1264634129057476     
   1.1527647837866066        1.1527647837866069     
   1.1779285150008481        1.1779285150008481     
   1.2019297729838159        1.2019297729838161     
   1.2247448713915887        1.2247448713915889     
