 VARIABLES = "y11", "y12"
 ZONE I=         201 F=POINT
  0.50000000000000011       0.86602540378443860     
  0.47255076486905412       0.88130345206499217     
  0.44463517918492762       0.89571176023941290     
  0.41628079226040127       0.90923610904706853     
  0.38751558645210310       0.92186315158850052     
  0.35836794954530043       0.93358042649720174     
  0.32886664673858340       0.94437637023748100     
  0.29904079225608682       0.95424032851627683     
  0.26891982061526581       0.96316256679765810     
  0.23853345757858099       0.97113427990963608     
  0.20791169081775948       0.97814760073380558     
  0.17708474031958343       0.98419560796924188     
  0.14608302856241182       0.98927233296298833     
  0.11493715049286674       0.99337276560039645     
   8.3677843332315635E-002  0.99649285924950437     
   5.2335956242944022E-002  0.99862953475457383     
   2.0942419883357051E-002  0.99978068347484550     
  -1.0471784116245669E-002  0.99994516936551225     
  -4.1875653729199526E-002  0.99912283009885838     
  -7.3238197127631535E-002  0.99731447722445821     
 -0.10452846326765332       0.99452189536827340     
 -0.13571557243430427       0.99074784047144360     
 -0.16676874671610206       0.98599603707050487     
 -0.19765734037912594       0.98027117462172197     
 -0.22835087011065558       0.97357890287316029     
 -0.25881904510252057       0.96592582628906842     
 -0.28903179694447151       0.95731949753206735     
 -0.31895930929806976       0.94776841000958578     
 -0.34857204732181502       0.93728198949189157     
 -0.37784078681846694       0.92587058480999473     
 -0.40673664307579999       0.91354545764260098     
 -0.43523109937232729       0.90031877140219363     
 -0.46329603511986162       0.88620357923121484     
 -0.49090375361514071       0.87121381112018947     
 -0.51802700937313018       0.85536426016050660     
 -0.54463903501502697       0.83867056794542416     
 -0.57071356768443160       0.82114920913370415     
 -0.59622487496561571       0.80281747519111457     
 -0.62114778027831019       0.78369345732583995     
 -0.64545768772395040       0.76379602863464235     
 -0.66913060635885813       0.74314482547739436     
 -0.69214317387040658       0.72176022809836238     
 -0.71447267963280325       0.69966334051336543     
 -0.73609708711973409       0.67687596968266084     
 -0.75699505565175629       0.65342060399010560     
 -0.77714596145697079       0.62932039104983761     
 -0.79652991802419604       0.60459911486237516     
 -0.81512779572855421       0.57928117234267884     
 -0.83292124071009932       0.55339154924334433     
 -0.84989269298686387       0.52695579549667781     
 -0.86602540378443860       0.50000000000000011     
 -0.88130345206499217       0.47255076486905417     
 -0.89571176023941279       0.44463517918492756     
 -0.90923610904706853       0.41628079226040121     
 -0.92186315158850052       0.38751558645210321     
 -0.93358042649720174       0.35836794954530043     
 -0.94437637023748100       0.32886664673858340     
 -0.95424032851627683       0.29904079225608693     
 -0.96316256679765810       0.26891982061526576     
 -0.97113427990963597       0.23853345757858108     
 -0.97814760073380558       0.20791169081775973     
 -0.98419560796924188       0.17708474031958343     
 -0.98927233296298822       0.14608302856241195     
 -0.99337276560039645       0.11493715049286667     
 -0.99649285924950437        8.3677843332315469E-002
 -0.99862953475457394        5.2335956242944001E-002
 -0.99978068347484550        2.0942419883356919E-002
 -0.99994516936551214       -1.0471784116245679E-002
 -0.99912283009885838       -4.1875653729199672E-002
 -0.99731447722445810       -7.3238197127631535E-002
 -0.99452189536827329      -0.10452846326765322     
 -0.99074784047144360      -0.13571557243430440     
 -0.98599603707050487      -0.16676874671610212     
 -0.98027117462172186      -0.19765734037912583     
 -0.97357890287316029      -0.22835087011065561     
 -0.96592582628906831      -0.25881904510252063     
 -0.95731949753206735      -0.28903179694447123     
 -0.94776841000958589      -0.31895930929806993     
 -0.93728198949189168      -0.34857204732181502     
 -0.92587058480999473      -0.37784078681846717     
 -0.91354545764260109      -0.40673664307579993     
 -0.90031877140219374      -0.43523109937232723     
 -0.88620357923121496      -0.46329603511986123     
 -0.87121381112018936      -0.49090375361514099     
 -0.85536426016050671      -0.51802700937313018     
 -0.83867056794542416      -0.54463903501502686     
 -0.82114920913370426      -0.57071356768443138     
 -0.80281747519111490      -0.59622487496561527     
 -0.78369345732584006      -0.62114778027831019     
 -0.76379602863464224      -0.64545768772395051     
 -0.74314482547739436      -0.66913060635885802     
 -0.72176022809836249      -0.69214317387040647     
 -0.69966334051336587      -0.71447267963280292     
 -0.67687596968266095      -0.73609708711973409     
 -0.65342060399010549      -0.75699505565175640     
 -0.62932039104983761      -0.77714596145697068     
 -0.60459911486237516      -0.79652991802419604     
 -0.57928117234267895      -0.81512779572855421     
 -0.55339154924334433      -0.83292124071009932     
 -0.52695579549667759      -0.84989269298686387     
 -0.50000000000000022      -0.86602540378443849     
 -0.47255076486905440      -0.88130345206499205     
 -0.44463517918492762      -0.89571176023941290     
 -0.41628079226040149      -0.90923610904706842     
 -0.38751558645210310      -0.92186315158850052     
 -0.35836794954530055      -0.93358042649720163     
 -0.32886664673858323      -0.94437637023748100     
 -0.29904079225608682      -0.95424032851627683     
 -0.26891982061526604      -0.96316256679765810     
 -0.23853345757858138      -0.97113427990963597     
 -0.20791169081775962      -0.97814760073380569     
 -0.17708474031958332      -0.98419560796924199     
 -0.14608302856241182      -0.98927233296298833     
 -0.11493715049286699      -0.99337276560039645     
  -8.3677843332316038E-002 -0.99649285924950437     
  -5.2335956242943620E-002 -0.99862953475457383     
  -2.0942419883356947E-002 -0.99978068347484539     
   1.0471784116245572E-002 -0.99994516936551214     
   4.1875653729199276E-002 -0.99912283009885838     
   7.3238197127631133E-002 -0.99731447722445810     
  0.10452846326765278      -0.99452189536827351     
  0.13571557243430438      -0.99074784047144371     
  0.16676874671610206      -0.98599603707050487     
  0.19765734037912580      -0.98027117462172186     
  0.22835087011065527      -0.97357890287316040     
  0.25881904510252013      -0.96592582628906842     
  0.28903179694447156      -0.95731949753206735     
  0.31895930929806976      -0.94776841000958578     
  0.34857204732181535      -0.93728198949189145     
  0.37784078681846706      -0.92587058480999485     
  0.40673664307579999      -0.91354545764260098     
  0.43523109937232707      -0.90031877140219374     
  0.46329603511986195      -0.88620357923121462     
  0.49090375361514094      -0.87121381112018936     
  0.51802700937313007      -0.85536426016050671     
  0.54463903501502686      -0.83867056794542416     
  0.57071356768443204      -0.82114920913370382     
  0.59622487496561594      -0.80281747519111435     
  0.62114778027831041      -0.78369345732583973     
  0.64545768772395051      -0.76379602863464224     
  0.66913060635885802      -0.74314482547739436     
  0.69214317387040647      -0.72176022809836249     
  0.71447267963280348      -0.69966334051336521     
  0.73609708711973432      -0.67687596968266073     
  0.75699505565175640      -0.65342060399010560     
  0.77714596145697068      -0.62932039104983761     
  0.79652991802419604      -0.60459911486237528     
  0.81512779572855432      -0.57928117234267862     
  0.83292124071009954      -0.55339154924334399     
  0.84989269298686387      -0.52695579549667770     
  0.86602540378443849      -0.50000000000000022     
  0.88130345206499205      -0.47255076486905445     
  0.89571176023941257      -0.44463517918492806     
  0.90923610904706853      -0.41628079226040116     
  0.92186315158850052      -0.38751558645210310     
  0.93358042649720163      -0.35836794954530055     
  0.94437637023748089      -0.32886664673858368     
  0.95424032851627671      -0.29904079225608732     
  0.96316256679765822      -0.26891982061526565     
  0.97113427990963597      -0.23853345757858102     
  0.97814760073380558      -0.20791169081775968     
  0.98419560796924177      -0.17708474031958377     
  0.98927233296298822      -0.14608302856241229     
  0.99337276560039633      -0.11493715049286744     
  0.99649285924950426       -8.3677843332316523E-002
  0.99862953475457383       -5.2335956242945056E-002
  0.99978068347484550       -2.0942419883356586E-002
  0.99994516936551203        1.0471784116246012E-002
  0.99912283009885838        4.1875653729199672E-002
  0.99731447722445810        7.3238197127631535E-002
  0.99452189536827340       0.10452846326765305     
  0.99074784047144371       0.13571557243430379     
  0.98599603707050509       0.16676874671610162     
  0.98027117462172197       0.19765734037912522     
  0.97357890287316040       0.22835087011065466     
  0.96592582628906865       0.25881904510251957     
  0.95731949753206735       0.28903179694447106     
  0.94776841000958567       0.31895930929807009     
  0.93728198949189157       0.34857204732181524     
  0.92587058480999485       0.37784078681846700     
  0.91354545764260109       0.40673664307579988     
  0.90031877140219374       0.43523109937232707     
  0.88620357923121507       0.46329603511986106     
  0.87121381112018992       0.49090375361513999     
  0.85536426016050715       0.51802700937312940     
  0.83867056794542427       0.54463903501502686     
  0.82114920913370437       0.57071356768443127     
  0.80281747519111446       0.59622487496561594     
  0.78369345732583984       0.62114778027831041     
  0.76379602863464235       0.64545768772395040     
  0.74314482547739447       0.66913060635885802     
  0.72176022809836260       0.69214317387040636     
  0.69966334051336587       0.71447267963280292     
  0.67687596968266139       0.73609708711973365     
  0.65342060399010560       0.75699505565175629     
  0.62932039104983772       0.77714596145697057     
  0.60459911486237528       0.79652991802419593     
  0.57928117234267940       0.81512779572855387     
  0.55339154924334411       0.83292124071009954     
  0.52695579549667770       0.84989269298686387     
  0.50000000000000033       0.86602540378443849     
