 VARIABLES = "y21", "y22"
 ZONE I=         201 F=POINT
   0.0000000000000000        1.7320508075688772     
   0.0000000000000000        1.7626069041299843     
   0.0000000000000000        1.7914235204788258     
   0.0000000000000000        1.8184722180941371     
   0.0000000000000000        1.8437263031770010     
   0.0000000000000000        1.8671608529944035     
   0.0000000000000000        1.8887527404749620     
   0.0000000000000000        1.9084806570325537     
   0.0000000000000000        1.9263251335953162     
   0.0000000000000000        1.9422685598192722     
   0.0000000000000000        1.9562952014676112     
   0.0000000000000000        1.9683912159384838     
   0.0000000000000000        1.9785446659259767     
   0.0000000000000000        1.9867455312007929     
   0.0000000000000000        1.9929857184990087     
   0.0000000000000000        1.9972590695091477     
   0.0000000000000000        1.9995613669496910     
   0.0000000000000000        1.9998903387310245     
   0.0000000000000000        1.9982456601977168     
   0.0000000000000000        1.9946289544489164     
   0.0000000000000000        1.9890437907365468     
   0.0000000000000000        1.9814956809428872     
   0.0000000000000000        1.9719920741410097     
   0.0000000000000000        1.9605423492434439     
   0.0000000000000000        1.9471578057463206     
   0.0000000000000000        1.9318516525781368     
   0.0000000000000000        1.9146389950641347     
   0.0000000000000000        1.8955368200191716     
   0.0000000000000000        1.8745639789837831     
   0.0000000000000000        1.8517411696199895     
   0.0000000000000000        1.8270909152852020     
   0.0000000000000000        1.8006375428043873     
   0.0000000000000000        1.7724071584624297     
   0.0000000000000000        1.7424276222403789     
   0.0000000000000000        1.7107285203210132     
   0.0000000000000000        1.6773411358908483     
   0.0000000000000000        1.6422984182674083     
   0.0000000000000000        1.6056349503822291     
   0.0000000000000000        1.5673869146516799     
   0.0000000000000000        1.5275920572692847     
   0.0000000000000000        1.4862896509547887     
   0.0000000000000000        1.4435204561967248     
   0.0000000000000000        1.3993266810267309     
   0.0000000000000000        1.3537519393653217     
   0.0000000000000000        1.3068412079802112     
   0.0000000000000000        1.2586407820996752     
   0.0000000000000000        1.2091982297247503     
   0.0000000000000000        1.1585623446853577     
   0.0000000000000000        1.1067830984866887     
   0.0000000000000000        1.0539115909933556     
   0.0000000000000000        1.0000000000000002     
   0.0000000000000000       0.94510152973810835     
   0.0000000000000000       0.88927035836985513     
   0.0000000000000000       0.83256158452080242     
   0.0000000000000000       0.77503117290420642     
   0.0000000000000000       0.71673589909060087     
   0.0000000000000000       0.65773329347716680     
   0.0000000000000000       0.59808158451217386     
   0.0000000000000000       0.53783964123053152     
   0.0000000000000000       0.47706691515716215     
   0.0000000000000000       0.41582338163551946     
   0.0000000000000000       0.35416948063916687     
   0.0000000000000000       0.29216605712482391     
   0.0000000000000000       0.22987430098573333     
   0.0000000000000000       0.16735568666463094     
   0.0000000000000000       0.10467191248588800     
   0.0000000000000000        4.1884839766713838E-002
   0.0000000000000000       -2.0943568232491359E-002
   0.0000000000000000       -8.3751307458399343E-002
   0.0000000000000000      -0.14647639425526307     
   0.0000000000000000      -0.20905692653530644     
   0.0000000000000000      -0.27143114486860881     
   0.0000000000000000      -0.33353749343220424     
   0.0000000000000000      -0.39531468075825166     
   0.0000000000000000      -0.45670174022131121     
   0.0000000000000000      -0.51763809020504126     
   0.0000000000000000      -0.57806359388894246     
   0.0000000000000000      -0.63791861859613985     
   0.0000000000000000      -0.69714409464363003     
   0.0000000000000000      -0.75568157363693433     
   0.0000000000000000      -0.81347328615159986     
   0.0000000000000000      -0.87046219874465447     
   0.0000000000000000      -0.92659207023972245     
   0.0000000000000000      -0.98180750723028198     
   0.0000000000000000       -1.0360540187462604     
   0.0000000000000000       -1.0892780700300537     
   0.0000000000000000       -1.1414271353688628     
   0.0000000000000000       -1.1924497499312305     
   0.0000000000000000       -1.2422955605566204     
   0.0000000000000000       -1.2909153754479010     
   0.0000000000000000       -1.3382612127177160     
   0.0000000000000000       -1.3842863477408129     
   0.0000000000000000       -1.4289453592656058     
   0.0000000000000000       -1.4721941742394682     
   0.0000000000000000       -1.5139901113035128     
   0.0000000000000000       -1.5542919229139414     
   0.0000000000000000       -1.5930598360483921     
   0.0000000000000000       -1.6302555914571084     
   0.0000000000000000       -1.6658424814201986     
   0.0000000000000000       -1.6997853859737277     
   0.0000000000000000       -1.7320508075688770     
   0.0000000000000000       -1.7626069041299841     
   0.0000000000000000       -1.7914235204788258     
   0.0000000000000000       -1.8184722180941368     
   0.0000000000000000       -1.8437263031770010     
   0.0000000000000000       -1.8671608529944033     
   0.0000000000000000       -1.8887527404749620     
   0.0000000000000000       -1.9084806570325537     
   0.0000000000000000       -1.9263251335953162     
   0.0000000000000000       -1.9422685598192719     
   0.0000000000000000       -1.9562952014676114     
   0.0000000000000000       -1.9683912159384840     
   0.0000000000000000       -1.9785446659259767     
   0.0000000000000000       -1.9867455312007929     
   0.0000000000000000       -1.9929857184990087     
   0.0000000000000000       -1.9972590695091477     
   0.0000000000000000       -1.9995613669496908     
   0.0000000000000000       -1.9998903387310243     
   0.0000000000000000       -1.9982456601977168     
   0.0000000000000000       -1.9946289544489162     
   0.0000000000000000       -1.9890437907365470     
   0.0000000000000000       -1.9814956809428874     
   0.0000000000000000       -1.9719920741410097     
   0.0000000000000000       -1.9605423492434437     
   0.0000000000000000       -1.9471578057463208     
   0.0000000000000000       -1.9318516525781368     
   0.0000000000000000       -1.9146389950641347     
   0.0000000000000000       -1.8955368200191716     
   0.0000000000000000       -1.8745639789837829     
   0.0000000000000000       -1.8517411696199897     
   0.0000000000000000       -1.8270909152852020     
   0.0000000000000000       -1.8006375428043875     
   0.0000000000000000       -1.7724071584624292     
   0.0000000000000000       -1.7424276222403787     
   0.0000000000000000       -1.7107285203210134     
   0.0000000000000000       -1.6773411358908483     
   0.0000000000000000       -1.6422984182674076     
   0.0000000000000000       -1.6056349503822287     
   0.0000000000000000       -1.5673869146516795     
   0.0000000000000000       -1.5275920572692845     
   0.0000000000000000       -1.4862896509547887     
   0.0000000000000000       -1.4435204561967250     
   0.0000000000000000       -1.3993266810267304     
   0.0000000000000000       -1.3537519393653215     
   0.0000000000000000       -1.3068412079802112     
   0.0000000000000000       -1.2586407820996752     
   0.0000000000000000       -1.2091982297247506     
   0.0000000000000000       -1.1585623446853572     
   0.0000000000000000       -1.1067830984866880     
   0.0000000000000000       -1.0539115909933554     
   0.0000000000000000       -1.0000000000000004     
   0.0000000000000000      -0.94510152973810890     
   0.0000000000000000      -0.88927035836985613     
   0.0000000000000000      -0.83256158452080231     
   0.0000000000000000      -0.77503117290420620     
   0.0000000000000000      -0.71673589909060109     
   0.0000000000000000      -0.65773329347716736     
   0.0000000000000000      -0.59808158451217464     
   0.0000000000000000      -0.53783964123053130     
   0.0000000000000000      -0.47706691515716204     
   0.0000000000000000      -0.41582338163551935     
   0.0000000000000000      -0.35416948063916753     
   0.0000000000000000      -0.29216605712482457     
   0.0000000000000000      -0.22987430098573489     
   0.0000000000000000      -0.16735568666463305     
   0.0000000000000000      -0.10467191248589011     
   0.0000000000000000       -4.1884839766713172E-002
   0.0000000000000000        2.0943568232492025E-002
   0.0000000000000000        8.3751307458399343E-002
   0.0000000000000000       0.14647639425526307     
   0.0000000000000000       0.20905692653530611     
   0.0000000000000000       0.27143114486860759     
   0.0000000000000000       0.33353749343220324     
   0.0000000000000000       0.39531468075825044     
   0.0000000000000000       0.45670174022130933     
   0.0000000000000000       0.51763809020503915     
   0.0000000000000000       0.57806359388894213     
   0.0000000000000000       0.63791861859614019     
   0.0000000000000000       0.69714409464363047     
   0.0000000000000000       0.75568157363693400     
   0.0000000000000000       0.81347328615159975     
   0.0000000000000000       0.87046219874465414     
   0.0000000000000000       0.92659207023972212     
   0.0000000000000000       0.98180750723027999     
   0.0000000000000000        1.0360540187462588     
   0.0000000000000000        1.0892780700300537     
   0.0000000000000000        1.1414271353688625     
   0.0000000000000000        1.1924497499312319     
   0.0000000000000000        1.2422955605566208     
   0.0000000000000000        1.2909153754479008     
   0.0000000000000000        1.3382612127177160     
   0.0000000000000000        1.3842863477408127     
   0.0000000000000000        1.4289453592656058     
   0.0000000000000000        1.4721941742394673     
   0.0000000000000000        1.5139901113035126     
   0.0000000000000000        1.5542919229139411     
   0.0000000000000000        1.5930598360483919     
   0.0000000000000000        1.6302555914571077     
   0.0000000000000000        1.6658424814201991     
   0.0000000000000000        1.6997853859737277     
   0.0000000000000000        1.7320508075688770     
