 VARIABLES = "x1", "x2"
 ZONE I=           3 F=POINT
   0.0000000000000000        1.7320508075688772     
   0.0000000000000000        0.0000000000000000     
   0.0000000000000000        1.0000000000000002     
