 VARIABLES = "x1", "x2"
 ZONE I=           3 F=POINT
   1.2247448713915889        1.2247448713915892     
   0.0000000000000000        0.0000000000000000     
  0.70710678118654757       0.70710678118654768     
