 VARIABLES = "X", "I", "dI/dx"
 ZONE I=         401 ,DATAPACKING=POINT
  0.000000000000000E+000  0.300000000000000       0.799999999999999     
  1.250000000000000E-003  0.301024150390625       0.838585937500000     
  2.500000000000000E-003  0.302096328125000       0.876843750000000     
  3.750000000000000E-003  0.303216123046875       0.914773437499996     
  5.000000000000000E-003  0.304383125000000       0.952375000000000     
  6.250000000000000E-003  0.305596923828125       0.989648437499999     
  7.500000000000000E-003  0.306857109375000        1.02659375000000     
  8.750000000000001E-003  0.308163271484375        1.06321093750000     
  1.000000000000000E-002  0.309515000000000        1.09950000000000     
  1.125000000000000E-002  0.310911884765625        1.13546093750000     
  1.250000000000000E-002  0.312353515625000        1.17109375000000     
  1.375000000000000E-002  0.313839482421875        1.20639843750000     
  1.500000000000000E-002  0.315369375000000        1.24137500000000     
  1.625000000000000E-002  0.316942783203125        1.27602343750000     
  1.750000000000000E-002  0.318559296875000        1.31034375000000     
  1.875000000000000E-002  0.320218505859375        1.34433593750000     
  2.000000000000000E-002  0.321920000000000        1.37800000000000     
  2.125000000000000E-002  0.323663369140625        1.41133593750000     
  2.250000000000000E-002  0.325448203125000        1.44434375000000     
  2.375000000000000E-002  0.327274091796875        1.47702343750000     
  2.500000000000000E-002  0.329140625000000        1.50937500000000     
  2.625000000000000E-002  0.331047392578125        1.54139843750000     
  2.750000000000000E-002  0.332993984375000        1.57309375000000     
  2.875000000000000E-002  0.334979990234375        1.60446093750000     
  3.000000000000000E-002  0.337005000000000        1.63550000000000     
  3.125000000000000E-002  0.339068603515625        1.66621093750000     
  3.250000000000000E-002  0.341170390625000        1.69659375000000     
  3.375000000000000E-002  0.343309951171875        1.72664843750000     
  3.500000000000000E-002  0.345486875000000        1.75637500000000     
  3.625000000000000E-002  0.347700751953125        1.78577343750000     
  3.750000000000000E-002  0.349951171875000        1.81484375000000     
  3.875000000000000E-002  0.352237724609375        1.84358593750000     
  4.000000000000000E-002  0.354560000000000        1.87200000000000     
  4.125000000000000E-002  0.356917587890625        1.90008593750000     
  4.250000000000000E-002  0.359310078125000        1.92784375000000     
  4.375000000000000E-002  0.361737060546875        1.95527343750000     
  4.500000000000000E-002  0.364198125000000        1.98237500000000     
  4.625000000000000E-002  0.366692861328125        2.00914843750000     
  4.750000000000000E-002  0.369220859375000        2.03559375000000     
  4.875000000000000E-002  0.371781708984375        2.06171093750000     
  5.000000000000000E-002  0.374375000000000        2.08750000000000     
  5.125000000000000E-002  0.377000322265625        2.11296093750000     
  5.250000000000000E-002  0.379657265625000        2.13809375000000     
  5.375000000000000E-002  0.382345419921875        2.16289843750000     
  5.500000000000000E-002  0.385064375000000        2.18737500000000     
  5.625000000000000E-002  0.387813720703125        2.21152343750000     
  5.750000000000000E-002  0.390593046875000        2.23534375000000     
  5.875000000000000E-002  0.393401943359375        2.25883593750000     
  6.000000000000000E-002  0.396240000000000        2.28200000000000     
  6.125000000000000E-002  0.399106806640625        2.30483593750000     
  6.250000000000000E-002  0.402001953125000        2.32734375000000     
  6.375000000000000E-002  0.404925029296875        2.34952343750000     
  6.500000000000000E-002  0.407875625000000        2.37137500000000     
  6.625000000000000E-002  0.410853330078125        2.39289843750000     
  6.750000000000000E-002  0.413857734375000        2.41409375000000     
  6.875000000000001E-002  0.416888427734375        2.43496093750000     
  7.000000000000001E-002  0.419945000000000        2.45550000000000     
  7.124999999999999E-002  0.423027041015625        2.47571093750000     
  7.250000000000000E-002  0.426134140625000        2.49559375000000     
  7.375000000000000E-002  0.429265888671875        2.51514843750000     
  7.500000000000000E-002  0.432421875000000        2.53437500000000     
  7.625000000000000E-002  0.435601689453125        2.55327343750000     
  7.750000000000000E-002  0.438804921875000        2.57184375000000     
  7.875000000000000E-002  0.442031162109375        2.59008593750000     
  8.000000000000000E-002  0.445280000000000        2.60800000000000     
  8.125000000000000E-002  0.448551025390625        2.62558593750000     
  8.250000000000000E-002  0.451843828125000        2.64284375000000     
  8.375000000000000E-002  0.455157998046875        2.65977343750000     
  8.500000000000001E-002  0.458493125000000        2.67637500000000     
  8.624999999999999E-002  0.461848798828125        2.69264843750000     
  8.749999999999999E-002  0.465224609375000        2.70859375000000     
  8.875000000000000E-002  0.468620146484375        2.72421093750000     
  9.000000000000000E-002  0.472035000000000        2.73950000000000     
  9.125000000000000E-002  0.475468759765625        2.75446093750000     
  9.250000000000000E-002  0.478921015625000        2.76909375000000     
  9.375000000000000E-002  0.482391357421875        2.78339843750000     
  9.500000000000000E-002  0.485879375000000        2.79737500000000     
  9.625000000000000E-002  0.489384658203125        2.81102343750000     
  9.750000000000000E-002  0.492906796875000        2.82434375000000     
  9.875000000000000E-002  0.496445380859375        2.83733593750000     
  0.100000000000000       0.500000000000000        2.85000000000000     
  0.101250000000000       0.503570244140625        2.86233593750000     
  0.102500000000000       0.507155703125000        2.87434375000000     
  0.103750000000000       0.510755966796875        2.88602343750000     
  0.105000000000000       0.514370625000000        2.89737500000000     
  0.106250000000000       0.517999267578125        2.90839843750000     
  0.107500000000000       0.521641484375000        2.91909375000000     
  0.108750000000000       0.525296865234375        2.92946093750000     
  0.110000000000000       0.528965000000000        2.93950000000000     
  0.111250000000000       0.532645478515625        2.94921093750000     
  0.112500000000000       0.536337890625000        2.95859375000000     
  0.113750000000000       0.540041826171875        2.96764843750000     
  0.115000000000000       0.543756875000000        2.97637500000000     
  0.116250000000000       0.547482626953125        2.98477343750000     
  0.117500000000000       0.551218671875000        2.99284375000000     
  0.118750000000000       0.554964599609375        3.00058593750000     
  0.120000000000000       0.558720000000000        3.00800000000000     
  0.121250000000000       0.562484462890625        3.01508593750000     
  0.122500000000000       0.566257578125000        3.02184375000000     
  0.123750000000000       0.570038935546875        3.02827343750000     
  0.125000000000000       0.573828125000000        3.03437500000000     
  0.126250000000000       0.577624736328125        3.04014843750000     
  0.127500000000000       0.581428359375000        3.04559375000000     
  0.128750000000000       0.585238583984375        3.05071093750000     
  0.130000000000000       0.589055000000000        3.05550000000000     
  0.131250000000000       0.592877197265625        3.05996093750000     
  0.132500000000000       0.596704765625000        3.06409375000000     
  0.133750000000000       0.600537294921875        3.06789843750000     
  0.135000000000000       0.604374375000000        3.07137500000000     
  0.136250000000000       0.608215595703125        3.07452343750000     
  0.137500000000000       0.612060546875000        3.07734375000000     
  0.138750000000000       0.615908818359375        3.07983593750000     
  0.140000000000000       0.619760000000000        3.08200000000000     
  0.141250000000000       0.623613681640625        3.08383593750000     
  0.142500000000000       0.627469453125000        3.08534375000000     
  0.143750000000000       0.631326904296875        3.08652343750000     
  0.145000000000000       0.635185625000000        3.08737500000000     
  0.146250000000000       0.639045205078125        3.08789843750000     
  0.147500000000000       0.642905234375000        3.08809375000000     
  0.148750000000000       0.646765302734375        3.08796093750000     
  0.150000000000000       0.650625000000000        3.08750000000000     
  0.151250000000000       0.654483916015625        3.08671093750000     
  0.152500000000000       0.658341640625000        3.08559375000000     
  0.153750000000000       0.662197763671875        3.08414843750000     
  0.155000000000000       0.666051875000000        3.08237500000000     
  0.156250000000000       0.669903564453125        3.08027343750000     
  0.157500000000000       0.673752421875000        3.07784375000000     
  0.158750000000000       0.677598037109375        3.07508593750000     
  0.160000000000000       0.681440000000000        3.07200000000000     
  0.161250000000000       0.685277900390625        3.06858593750000     
  0.162500000000000       0.689111328125000        3.06484375000000     
  0.163750000000000       0.692939873046875        3.06077343750000     
  0.165000000000000       0.696763125000000        3.05637500000000     
  0.166250000000000       0.700580673828125        3.05164843750000     
  0.167500000000000       0.704392109375000        3.04659375000000     
  0.168750000000000       0.708197021484375        3.04121093750000     
  0.170000000000000       0.711995000000000        3.03550000000000     
  0.171250000000000       0.715785634765625        3.02946093750000     
  0.172500000000000       0.719568515625000        3.02309375000000     
  0.173750000000000       0.723343232421875        3.01639843750000     
  0.175000000000000       0.727109375000000        3.00937500000000     
  0.176250000000000       0.730866533203125        3.00202343750000     
  0.177500000000000       0.734614296875000        2.99434375000000     
  0.178750000000000       0.738352255859375        2.98633593750000     
  0.180000000000000       0.742080000000000        2.97800000000000     
  0.181250000000000       0.745797119140625        2.96933593750000     
  0.182500000000000       0.749503203125000        2.96034375000000     
  0.183750000000000       0.753197841796875        2.95102343750000     
  0.185000000000000       0.756880625000000        2.94137500000000     
  0.186250000000000       0.760551142578125        2.93139843750000     
  0.187500000000000       0.764208984375000        2.92109375000000     
  0.188750000000000       0.767853740234375        2.91046093750000     
  0.190000000000000       0.771485000000000        2.89950000000000     
  0.191250000000000       0.775102353515625        2.88821093750000     
  0.192500000000000       0.778705390625000        2.87659375000000     
  0.193750000000000       0.782293701171875        2.86464843750000     
  0.195000000000000       0.785866875000000        2.85237500000000     
  0.196250000000000       0.789424501953125        2.83977343750000     
  0.197500000000000       0.792966171875000        2.82684375000000     
  0.198750000000000       0.796491474609375        2.81358593750000     
  0.200000000000000       0.800000000000000        2.80000000000000     
  0.201250000000000       0.803491337890625        2.78608593750000     
  0.202500000000000       0.806965078125000        2.77184375000000     
  0.203750000000000       0.810420810546875        2.75727343750000     
  0.205000000000000       0.813858125000000        2.74237500000000     
  0.206250000000000       0.817276611328125        2.72714843750000     
  0.207500000000000       0.820675859375000        2.71159375000000     
  0.208750000000000       0.824055458984375        2.69571093750000     
  0.210000000000000       0.827415000000000        2.67950000000000     
  0.211250000000000       0.830754072265625        2.66296093750000     
  0.212500000000000       0.834072265625000        2.64609375000000     
  0.213750000000000       0.837369169921875        2.62889843750000     
  0.215000000000000       0.840644375000000        2.61137500000000     
  0.216250000000000       0.843897470703125        2.59352343750000     
  0.217500000000000       0.847128046875000        2.57534375000000     
  0.218750000000000       0.850335693359375        2.55683593750000     
  0.220000000000000       0.853520000000000        2.53800000000000     
  0.221250000000000       0.856680556640625        2.51883593750000     
  0.222500000000000       0.859816953125000        2.49934375000000     
  0.223750000000000       0.862928779296875        2.47952343750000     
  0.225000000000000       0.866015625000000        2.45937500000000     
  0.226250000000000       0.869077080078125        2.43889843750000     
  0.227500000000000       0.872112734375000        2.41809375000000     
  0.228750000000000       0.875122177734375        2.39696093750000     
  0.230000000000000       0.878105000000000        2.37550000000000     
  0.231250000000000       0.881060791015625        2.35371093750000     
  0.232500000000000       0.883989140625000        2.33159375000000     
  0.233750000000000       0.886889638671875        2.30914843750000     
  0.235000000000000       0.889761875000000        2.28637500000000     
  0.236250000000000       0.892605439453125        2.26327343750000     
  0.237500000000000       0.895419921875000        2.23984375000000     
  0.238750000000000       0.898204912109375        2.21608593750000     
  0.240000000000000       0.900960000000000        2.19200000000000     
  0.241250000000000       0.903684775390625        2.16758593750000     
  0.242500000000000       0.906378828125000        2.14284375000000     
  0.243750000000000       0.909041748046875        2.11777343750000     
  0.245000000000000       0.911673125000000        2.09237500000000     
  0.246250000000000       0.914272548828125        2.06664843750000     
  0.247500000000000       0.916839609375000        2.04059375000000     
  0.248750000000000       0.919373896484375        2.01421093750000     
  0.250000000000000       0.921875000000000        1.98750000000000     
  0.251250000000000       0.924342509765625        1.96046093750000     
  0.252500000000000       0.926776015625000        1.93309375000000     
  0.253750000000000       0.929175107421875        1.90539843750000     
  0.255000000000000       0.931539375000000        1.87737500000000     
  0.256250000000000       0.933868408203125        1.84902343750000     
  0.257500000000000       0.936161796875000        1.82034375000000     
  0.258750000000000       0.938419130859375        1.79133593750000     
  0.260000000000000       0.940640000000000        1.76200000000000     
  0.261250000000000       0.942823994140625        1.73233593750000     
  0.262500000000000       0.944970703125000        1.70234375000000     
  0.263750000000000       0.947079716796875        1.67202343750000     
  0.265000000000000       0.949150625000000        1.64137500000000     
  0.266250000000000       0.951183017578125        1.61039843750000     
  0.267500000000000       0.953176484375000        1.57909375000000     
  0.268750000000000       0.955130615234375        1.54746093750000     
  0.270000000000000       0.957045000000000        1.51550000000000     
  0.271250000000000       0.958919228515625        1.48321093750000     
  0.272500000000000       0.960752890625000        1.45059375000000     
  0.273750000000000       0.962545576171875        1.41764843750000     
  0.275000000000000       0.964296875000000        1.38437500000000     
  0.276250000000000       0.966006376953125        1.35077343750000     
  0.277500000000000       0.967673671875000        1.31684375000000     
  0.278750000000000       0.969298349609375        1.28258593750000     
  0.280000000000000       0.970880000000000        1.24800000000000     
  0.281250000000000       0.972418212890625        1.21308593750000     
  0.282500000000000       0.973912578125000        1.17784375000000     
  0.283750000000000       0.975362685546875        1.14227343750000     
  0.285000000000000       0.976768125000000        1.10637500000000     
  0.286250000000000       0.978128486328125        1.07014843750000     
  0.287500000000000       0.979443359375000        1.03359375000000     
  0.288750000000000       0.980712333984375       0.996710937500001     
  0.290000000000000       0.981935000000000       0.959500000000001     
  0.291250000000000       0.983110947265625       0.921960937500002     
  0.292500000000000       0.984239765625000       0.884093750000000     
  0.293750000000000       0.985321044921875       0.845898437500001     
  0.295000000000000       0.986354375000000       0.807375000000003     
  0.296250000000000       0.987339345703125       0.768523437499999     
  0.297500000000000       0.988275546875000       0.729343750000002     
  0.298750000000000       0.989162568359375       0.689835937500001     
  0.300000000000000       0.990000000000000       0.650000000000003     
  0.301250000000000       0.990787431640625       0.609835937500000     
  0.302500000000000       0.991524453125000       0.569343750000001     
  0.303750000000000       0.992210654296875       0.528523437500002     
  0.305000000000000       0.992845625000000       0.487374999999998     
  0.306250000000000       0.993428955078125       0.445898437500002     
  0.307500000000000       0.993960234375000       0.404093750000001     
  0.308750000000000       0.994439052734375       0.361960937500001     
  0.310000000000000       0.994865000000000       0.319500000000001     
  0.311250000000000       0.995237666015625       0.276710937500001     
  0.312500000000000       0.995556640625000       0.233593750000000     
  0.313750000000000       0.995821513671875       0.190148437500000     
  0.315000000000000       0.996031875000000       0.146375000000000     
  0.316250000000000       0.996187314453125       0.102273437500001     
  0.317500000000000       0.996287421875000       5.784374999999886E-002
  0.318750000000000       0.996331787109375       1.308593750000164E-002
  0.320000000000000       0.996320000000000      -3.199999999999786E-002
  0.321250000000000       0.996251650390625      -7.741406250000127E-002
  0.322500000000000       0.996126328125000      -0.123156249999998     
  0.323750000000000       0.995943623046875      -0.169226562499999     
  0.325000000000000       0.995703125000000      -0.215624999999998     
  0.326250000000000       0.995404423828125      -0.262351562499998     
  0.327500000000000       0.995047109375000      -0.309406249999998     
  0.328750000000000       0.994630771484375      -0.356789062499999     
  0.330000000000000       0.994155000000000      -0.404500000000001     
  0.331250000000000       0.993619384765625      -0.452539062499998     
  0.332500000000000       0.993023515625000      -0.500906250000002     
  0.333750000000000       0.992366982421875      -0.549601562500000     
  0.335000000000000       0.991649375000000      -0.598625000000000     
  0.336250000000000       0.990870283203125      -0.647976562500000     
  0.337500000000000       0.990029296875000      -0.697656250000001     
  0.338750000000000       0.989126005859375      -0.747664062499999     
  0.340000000000000       0.988160000000000      -0.797999999999999     
  0.341250000000000       0.987130869140625      -0.848664062499999     
  0.342500000000000       0.986038203125000      -0.899656250000001     
  0.343750000000000       0.984881591796875      -0.950976562500000     
  0.345000000000000       0.983660625000000       -1.00262500000000     
  0.346250000000000       0.982374892578125       -1.05460156250000     
  0.347500000000000       0.981023984375000       -1.10690625000000     
  0.348750000000000       0.979607490234375       -1.15953906250000     
  0.350000000000000       0.978125000000000       -1.21250000000000     
  0.351250000000000       0.976576103515625       -1.26578906250000     
  0.352500000000000       0.974960390625000       -1.31940625000000     
  0.353750000000000       0.973277451171875       -1.37335156250000     
  0.355000000000000       0.971526875000001       -1.42762500000000     
  0.356250000000000       0.969708251953125       -1.48222656250000     
  0.357500000000000       0.967821171874999       -1.53715625000000     
  0.358750000000000       0.965865224609375       -1.59241406250000     
  0.360000000000000       0.963840000000001       -1.64800000000000     
  0.361250000000000       0.961745087890625       -1.70391406250000     
  0.362500000000000       0.959580078125000       -1.76015625000000     
  0.363750000000000       0.957344560546876       -1.81672656250000     
  0.365000000000000       0.955038125000000       -1.87362500000000     
  0.366250000000000       0.952660361328125       -1.93085156250000     
  0.367500000000000       0.950210859375000       -1.98840625000000     
  0.368750000000000       0.947689208984375       -2.04628906250000     
  0.370000000000000       0.945095000000000       -2.10450000000000     
  0.371250000000000       0.942427822265625       -2.16303906250000     
  0.372500000000000       0.939687265625000       -2.22190625000000     
  0.373750000000000       0.936872919921875       -2.28110156250000     
  0.375000000000000       0.933984375000000       -2.34062500000000     
  0.376250000000000       0.931021220703125       -2.40047656250000     
  0.377500000000000       0.927983046875000       -2.46065625000000     
  0.378750000000000       0.924869443359375       -2.52116406250000     
  0.380000000000000       0.921680000000000       -2.58200000000000     
  0.381250000000000       0.918414306640625       -2.64316406250000     
  0.382500000000000       0.915071953125000       -2.70465625000000     
  0.383750000000000       0.911652529296875       -2.76647656250000     
  0.385000000000000       0.908155625000000       -2.82862500000000     
  0.386250000000000       0.904580830078126       -2.89110156250000     
  0.387500000000000       0.900927734375000       -2.95390625000000     
  0.388750000000000       0.897195927734375       -3.01703906250000     
  0.390000000000000       0.893385000000000       -3.08050000000000     
  0.391250000000000       0.889494541015625       -3.14428906250000     
  0.392500000000000       0.885524140625000       -3.20840625000000     
  0.393750000000000       0.881473388671875       -3.27285156250000     
  0.395000000000000       0.877341875000000       -3.33762500000000     
  0.396250000000000       0.873129189453125       -3.40272656250000     
  0.397500000000000       0.868834921875000       -3.46815625000000     
  0.398750000000000       0.864458662109375       -3.53391406250000     
  0.400000000000000       0.860000000000000       -3.60000000000000     
  0.401250000000000       0.855458525390626       -3.66641406250000     
  0.402500000000000       0.850833828125000       -3.73315625000000     
  0.403750000000000       0.846125498046875       -3.80022656250000     
  0.405000000000000       0.841333125000000       -3.86762500000000     
  0.406250000000000       0.836456298828125       -3.93535156250000     
  0.407500000000000       0.831494609375001       -4.00340625000000     
  0.408750000000000       0.826447646484375       -4.07178906250000     
  0.410000000000000       0.821315000000000       -4.14050000000000     
  0.411250000000000       0.816096259765625       -4.20953906250000     
  0.412500000000000       0.810791015625000       -4.27890625000000     
  0.413750000000000       0.805398857421875       -4.34860156250000     
  0.415000000000000       0.799919375000000       -4.41862500000000     
  0.416250000000000       0.794352158203125       -4.48897656250000     
  0.417500000000000       0.788696796875001       -4.55965625000000     
  0.418750000000000       0.782952880859375       -4.63066406250000     
  0.420000000000000       0.777120000000000       -4.70200000000000     
  0.421250000000000       0.771197744140625       -4.77366406250000     
  0.422500000000000       0.765185703125000       -4.84565625000000     
  0.423750000000000       0.759083466796875       -4.91797656250000     
  0.425000000000000       0.752890625000000       -4.99062500000000     
  0.426250000000000       0.746606767578125       -5.06360156250000     
  0.427500000000000       0.740231484375001       -5.13690625000000     
  0.428750000000000       0.733764365234374       -5.21053906250000     
  0.430000000000000       0.727205000000000       -5.28450000000000     
  0.431250000000000       0.720552978515625       -5.35878906250000     
  0.432500000000000       0.713807890625000       -5.43340625000001     
  0.433750000000000       0.706969326171875       -5.50835156250000     
  0.435000000000000       0.700036875000000       -5.58362500000000     
  0.436250000000000       0.693010126953125       -5.65922656250000     
  0.437500000000000       0.685888671875000       -5.73515625000000     
  0.438750000000000       0.678672099609376       -5.81141406250000     
  0.440000000000000       0.671360000000000       -5.88800000000000     
  0.441250000000000       0.663951962890625       -5.96491406249999     
  0.442500000000000       0.656447578125000       -6.04215625000001     
  0.443750000000000       0.648846435546875       -6.11972656250000     
  0.445000000000000       0.641148125000000       -6.19762500000001     
  0.446250000000000       0.633352236328125       -6.27585156250000     
  0.447500000000000       0.625458359375000       -6.35440625000000     
  0.448750000000000       0.617466083984376       -6.43328906250000     
  0.450000000000000       0.609375000000000       -6.51250000000000     
  0.451250000000000       0.601184697265625       -6.59203906250000     
  0.452500000000000       0.592894765625000       -6.67190625000000     
  0.453750000000000       0.584504794921875       -6.75210156250000     
  0.455000000000000       0.576014375000000       -6.83262500000000     
  0.456250000000000       0.567423095703125       -6.91347656250000     
  0.457500000000000       0.558730546875000       -6.99465625000000     
  0.458750000000000       0.549936318359376       -7.07616406250001     
  0.460000000000000       0.541040000000000       -7.15800000000000     
  0.461250000000000       0.532041181640625       -7.24016406250000     
  0.462500000000000       0.522939453125000       -7.32265625000000     
  0.463750000000000       0.513734404296875       -7.40547656250000     
  0.465000000000000       0.504425625000000       -7.48862500000000     
  0.466250000000000       0.495012705078125       -7.57210156250001     
  0.467500000000000       0.485495234375000       -7.65590625000000     
  0.468750000000000       0.475872802734375       -7.74003906250000     
  0.470000000000000       0.466145000000000       -7.82450000000000     
  0.471250000000000       0.456311416015625       -7.90928906250000     
  0.472500000000000       0.446371640625000       -7.99440625000000     
  0.473750000000000       0.436325263671875       -8.07985156250000     
  0.475000000000000       0.426171875000000       -8.16562499999999     
  0.476250000000000       0.415911064453125       -8.25172656250000     
  0.477500000000000       0.405542421875000       -8.33815625000000     
  0.478750000000000       0.395065537109375       -8.42491406250000     
  0.480000000000000       0.384480000000000       -8.51200000000000     
  0.481250000000000       0.373785400390625       -8.59941406250000     
  0.482500000000000       0.362981328125000       -8.68715625000000     
  0.483750000000000       0.352067373046875       -8.77522656250000     
  0.485000000000000       0.341043125000000       -8.86362500000001     
  0.486250000000000       0.329908173828125       -8.95235156250000     
  0.487500000000000       0.318662109375000       -9.04140625000000     
  0.488750000000000       0.307304521484375       -9.13078906250000     
  0.490000000000000       0.295835000000000       -9.22050000000000     
  0.491250000000000       0.284253134765625       -9.31053906250000     
  0.492500000000000       0.272558515625000       -9.40090625000000     
  0.493750000000000       0.260750732421875       -9.49160156250000     
  0.495000000000000       0.248829375000000       -9.58262500000000     
  0.496250000000000       0.236794033203125       -9.67397656250000     
  0.497500000000000       0.224644296875000       -9.76565624999999     
  0.498750000000000       0.212379755859375       -9.85766406250000     
  0.500000000000000       0.200000000000000       -9.95000000000000     
