 VARIABLES = "X", "L0", "L1", "L2", "L3" 
 ZONE I=         401 ,DATAPACKING=POINT
  -1.00000000000000        1.00000000000000        21.3333333333333     
   106.666666666667        256.000000000000     
 -0.995000000000000        1.06396282750000        20.8031946666667     
   105.389866666667        254.720000000000     
 -0.990000000000000        1.12586924000000        20.2794240000000     
   104.119466666667        253.440000000000     
 -0.985000000000000        1.18574602750000        19.7619893333333     
   102.855466666667        252.160000000000     
 -0.980000000000000        1.24361984000000        19.2508586666667     
   101.597866666667        250.880000000000     
 -0.975000000000000        1.29951718750000        18.7460000000000     
   100.346666666667        249.600000000000     
 -0.970000000000000        1.35346444000000        18.2473813333333     
   99.1018666666667        248.320000000000     
 -0.965000000000000        1.40548782750000        17.7549706666667     
   97.8634666666667        247.040000000000     
 -0.960000000000000        1.45561344000000        17.2687360000000     
   96.6314666666667        245.760000000000     
 -0.955000000000000        1.50386722750000        16.7886453333333     
   95.4058666666667        244.480000000000     
 -0.950000000000000        1.55027500000000        16.3146666666667     
   94.1866666666667        243.200000000000     
 -0.945000000000000        1.59486242750000        15.8467680000000     
   92.9738666666667        241.920000000000     
 -0.940000000000000        1.63765504000000        15.3849173333333     
   91.7674666666666        240.640000000000     
 -0.935000000000000        1.67867822750000        14.9290826666667     
   90.5674666666667        239.360000000000     
 -0.930000000000000        1.71795724000000        14.4792320000000     
   89.3738666666666        238.080000000000     
 -0.925000000000000        1.75551718750000        14.0353333333333     
   88.1866666666667        236.800000000000     
 -0.920000000000000        1.79138304000000        13.5973546666667     
   87.0058666666667        235.520000000000     
 -0.915000000000000        1.82557962750000        13.1652640000000     
   85.8314666666667        234.240000000000     
 -0.910000000000000        1.85813164000000        12.7390293333333     
   84.6634666666667        232.960000000000     
 -0.905000000000000        1.88906362750000        12.3186186666667     
   83.5018666666667        231.680000000000     
 -0.900000000000000        1.91840000000000        11.9040000000000     
   82.3466666666667        230.400000000000     
 -0.895000000000000        1.94616502750000        11.4951413333333     
   81.1978666666667        229.120000000000     
 -0.890000000000000        1.97238284000000        11.0920106666667     
   80.0554666666667        227.840000000000     
 -0.885000000000000        1.99707742750000        10.6945760000000     
   78.9194666666667        226.560000000000     
 -0.880000000000000        2.02027264000000        10.3028053333333     
   77.7898666666667        225.280000000000     
 -0.875000000000000        2.04199218750000        9.91666666666667     
   76.6666666666667        224.000000000000     
 -0.870000000000000        2.06225964000000        9.53612800000000     
   75.5498666666667        222.720000000000     
 -0.865000000000000        2.08109842750000        9.16115733333333     
   74.4394666666666        221.440000000000     
 -0.860000000000000        2.09853184000000        8.79172266666666     
   73.3354666666667        220.160000000000     
 -0.855000000000000        2.11458302750000        8.42779200000000     
   72.2378666666667        218.880000000000     
 -0.850000000000000        2.12927500000000        8.06933333333333     
   71.1466666666667        217.600000000000     
 -0.845000000000000        2.14263062750000        7.71631466666667     
   70.0618666666667        216.320000000000     
 -0.840000000000000        2.15467264000000        7.36870400000000     
   68.9834666666666        215.040000000000     
 -0.835000000000000        2.16542362750000        7.02646933333333     
   67.9114666666667        213.760000000000     
 -0.830000000000000        2.17490604000000        6.68957866666666     
   66.8458666666667        212.480000000000     
 -0.825000000000000        2.18314218750000        6.35800000000000     
   65.7866666666666        211.200000000000     
 -0.820000000000000        2.19015424000000        6.03170133333334     
   64.7338666666667        209.920000000000     
 -0.815000000000000        2.19596422750000        5.71065066666666     
   63.6874666666667        208.640000000000     
 -0.810000000000000        2.20059404000000        5.39481600000000     
   62.6474666666667        207.360000000000     
 -0.805000000000000        2.20406542750000        5.09741133333333     
   61.6138666666667        206.080000000000     
 -0.800000000000000        2.20640000000000        4.87200000000000     
   60.5866666666667        204.800000000000     
 -0.795000000000000        2.20761922750000        4.67365800000000     
   59.5658666666667        203.520000000000     
 -0.790000000000000        2.20774444000000        4.50057600000000     
   58.5514666666667        202.240000000000     
 -0.785000000000000        2.20679682750000        4.50491400000000     
   57.5434666666667        200.960000000000     
 -0.780000000000000        2.20479744000000        4.50796800000000     
   56.5418666666667        199.680000000000     
 -0.775000000000000        2.20176718750000        4.50975000000000     
   55.5466666666667        198.400000000000     
 -0.770000000000000        2.19772684000000        4.51027200000000     
   54.5578666666667        197.120000000000     
 -0.765000000000000        2.19269702750000        4.50954600000000     
   53.5754666666667        195.840000000000     
 -0.760000000000000        2.18669824000000        4.50758400000000     
   52.5994666666667        194.560000000000     
 -0.755000000000000        2.17975082750000        4.50439800000000     
   51.6298666666667        193.280000000000     
 -0.750000000000000        2.17187500000000        4.50000000000000     
   50.6666666666667        192.000000000000     
 -0.745000000000000        2.16309082750000        4.49440200000000     
   49.7098666666667        190.720000000000     
 -0.740000000000000        2.15341824000000        4.48761600000000     
   48.7594666666667        189.440000000000     
 -0.735000000000000        2.14287702750000        4.47965400000000     
   47.8154666666667        188.160000000000     
 -0.730000000000000        2.13148684000000        4.47052800000000     
   46.8778666666667        186.880000000000     
 -0.725000000000000        2.11926718750000        4.46025000000000     
   45.9466666666667        185.600000000000     
 -0.720000000000000        2.10623744000000        4.44883200000000     
   45.0218666666667        184.320000000000     
 -0.715000000000000        2.09241682750000        4.43628600000000     
   44.1034666666667        183.040000000000     
 -0.710000000000000        2.07782444000000        4.42262400000000     
   43.1914666666667        181.760000000000     
 -0.705000000000000        2.06247922750000        4.40785800000000     
   42.2858666666667        180.480000000000     
 -0.700000000000000        2.04640000000000        4.39200000000000     
   41.3866666666667        179.200000000000     
 -0.695000000000000        2.02960542750000        4.37506200000000     
   40.4938666666667        177.920000000000     
 -0.690000000000000        2.01211404000000        4.35705600000000     
   39.6074666666667        176.640000000000     
 -0.685000000000000        1.99394422750000        4.33799400000000     
   38.7274666666667        175.360000000000     
 -0.680000000000000        1.97511424000000        4.31788800000000     
   37.8538666666667        174.080000000000     
 -0.675000000000000        1.95564218750000        4.29675000000000     
   36.9866666666667        172.800000000000     
 -0.670000000000000        1.93554604000000        4.27459200000000     
   36.1258666666667        171.520000000000     
 -0.665000000000000        1.91484362750000        4.25142600000000     
   35.2714666666667        170.240000000000     
 -0.660000000000000        1.89355264000000        4.31588266666667     
   34.4234666666667        168.960000000000     
 -0.655000000000000        1.87169062750000        4.42834200000000     
   33.5818666666667        167.680000000000     
 -0.650000000000000        1.84927500000000        4.53733333333333     
   32.7466666666667        166.400000000000     
 -0.645000000000000        1.82632302750000        4.64288466666667     
   31.9178666666667        165.120000000000     
 -0.640000000000000        1.80285184000000        4.74502400000000     
   31.0954666666667        163.840000000000     
 -0.635000000000000        1.77887842750000        4.84377933333333     
   30.2794666666667        162.560000000000     
 -0.630000000000000        1.75441964000000        4.93917866666667     
   29.4698666666667        161.280000000000     
 -0.625000000000000        1.72949218750000        5.03125000000000     
   28.6666666666667        160.000000000000     
 -0.620000000000000        1.70411264000000        5.12002133333333     
   27.8698666666667        158.720000000000     
 -0.615000000000000        1.67829742750000        5.20552066666667     
   27.0794666666667        157.440000000000     
 -0.610000000000000        1.65206284000000        5.28777600000000     
   26.2954666666667        156.160000000000     
 -0.605000000000000        1.62542502750000        5.36681533333333     
   25.5178666666667        154.880000000000     
 -0.600000000000000        1.59840000000000        5.44266666666667     
   24.7466666666667        153.600000000000     
 -0.595000000000000        1.57100362750000        5.51535800000000     
   23.9818666666667        152.320000000000     
 -0.590000000000000        1.54325164000000        5.58491733333333     
   23.2234666666667        151.040000000000     
 -0.585000000000000        1.51515962750000        5.65137266666667     
   22.4714666666667        149.760000000000     
 -0.580000000000000        1.48674304000000        5.71475200000000     
   21.7258666666667        148.480000000000     
 -0.575000000000000        1.45801718750000        5.77508333333333     
   20.9866666666667        147.200000000000     
 -0.570000000000000        1.42899724000000        5.83239466666667     
   20.2821333333333        145.920000000000     
 -0.565000000000000        1.39969822750000        5.88671400000000     
   19.6065333333333        144.640000000000     
 -0.560000000000000        1.37013504000000        5.93806933333333     
   18.9365333333333        143.360000000000     
 -0.555000000000000        1.34032242750000        5.98648866666667     
   18.2721333333333        142.080000000000     
 -0.550000000000000        1.31027500000000        6.03200000000000     
   17.7200000000000        140.800000000000     
 -0.545000000000000        1.28000722750000        6.07463133333333     
   17.3372000000000        139.520000000000     
 -0.540000000000000        1.24953344000000        6.11441066666667     
   16.9568000000000        138.240000000000     
 -0.535000000000000        1.21886782750000        6.15136600000000     
   16.5788000000000        136.960000000000     
 -0.530000000000000        1.18802444000000        6.18552533333333     
   16.2032000000000        135.680000000000     
 -0.525000000000000        1.15701718750000        6.21691666666667     
   15.8300000000000        134.400000000000     
 -0.520000000000000        1.12585984000000        6.24556800000000     
   15.4592000000000        133.120000000000     
 -0.515000000000000        1.09456602750000        6.27150733333333     
   15.0908000000000        131.840000000000     
 -0.510000000000000        1.06314924000000        6.29476266666667     
   14.7248000000000        130.560000000000     
 -0.505000000000000        1.03162282750000        6.31536200000000     
   14.3612000000000        129.280000000000     
 -0.500000000000000        1.00000000000000        6.33333333333333     
   14.0000000000000        128.000000000000     
 -0.495000000000000        1.01487450250000        6.34870466666667     
   13.6412000000000        126.720000000000     
 -0.490000000000000        1.02949604000000        6.36150400000000     
   13.2848000000000        125.440000000000     
 -0.485000000000000        1.04386170250000        6.37175933333333     
   12.9308000000000        124.160000000000     
 -0.480000000000000        1.05796864000000        6.37949866666667     
   12.5792000000000        122.880000000000     
 -0.475000000000000        1.07181406250000        6.38475000000000     
   12.2300000000000        121.600000000000     
 -0.470000000000000        1.08539524000000        6.38754133333333     
   11.8832000000000        120.320000000000     
 -0.465000000000000        1.09870950250000        6.38790066666667     
   11.5388000000000        119.040000000000     
 -0.460000000000000        1.11175424000000        6.38585600000000     
   11.1968000000000        117.760000000000     
 -0.455000000000000        1.12452690250000        6.38143533333333     
   10.9828000000000        116.480000000000     
 -0.450000000000000        1.13702500000000        6.37466666666667     
   11.0800000000000        115.200000000000     
 -0.445000000000000        1.14924610250000        6.36557800000000     
   11.1748000000000        113.920000000000     
 -0.440000000000000        1.16118784000000        6.35419733333333     
   11.2672000000000        112.640000000000     
 -0.435000000000000        1.17284790250000        6.34055266666667     
   11.3572000000000        111.360000000000     
 -0.430000000000000        1.18422404000000        6.32467200000000     
   11.4448000000000        110.080000000000     
 -0.425000000000000        1.19531406250000        6.30658333333333     
   11.5300000000000        108.800000000000     
 -0.420000000000000        1.20611584000000        6.28631466666667     
   11.6128000000000        107.520000000000     
 -0.415000000000000        1.21662730250000        6.26389400000000     
   11.6932000000000        106.240000000000     
 -0.410000000000000        1.22684644000000        6.23934933333334     
   11.7712000000000        104.960000000000     
 -0.405000000000000        1.23677130250000        6.21270866666667     
   11.8468000000000        103.680000000000     
 -0.400000000000000        1.24640000000000        6.18400000000000     
   11.9200000000000        102.400000000000     
 -0.395000000000000        1.25573070250000        6.15325133333333     
   11.9908000000000        101.120000000000     
 -0.390000000000000        1.26476164000000        6.12049066666667     
   12.0592000000000        99.8400000000000     
 -0.385000000000000        1.27349110250000        6.08574600000000     
   12.1252000000000        98.5600000000000     
 -0.380000000000000        1.28191744000000        6.04904533333333     
   12.1888000000000        97.2800000000000     
 -0.375000000000000        1.29003906250000        6.01041666666667     
   12.2500000000000        96.0000000000000     
 -0.370000000000000        1.29785444000000        5.96988800000000     
   12.3088000000000        94.7200000000000     
 -0.365000000000000        1.30536210250000        5.92748733333333     
   12.3652000000000        93.4400000000000     
 -0.360000000000000        1.31256064000000        5.88324266666667     
   12.4192000000000        92.1600000000000     
 -0.355000000000000        1.31944870250000        5.83718200000000     
   12.4708000000000        90.8800000000000     
 -0.350000000000000        1.32602500000000        5.78933333333333     
   12.5200000000000        89.6000000000000     
 -0.345000000000000        1.33228830250000        5.73972466666667     
   12.5668000000000        88.3200000000000     
 -0.340000000000000        1.33823744000000        5.68838400000000     
   12.6112000000000        87.0400000000000     
 -0.335000000000000        1.34387130250000        5.63533933333333     
   12.6532000000000        85.7600000000000     
 -0.330000000000000        1.34918884000000        5.58061866666667     
   12.6928000000000        84.4800000000000     
 -0.325000000000000        1.35418906250000        5.52425000000000     
   12.7300000000000        83.2000000000000     
 -0.320000000000000        1.35887104000000        5.46626133333333     
   12.7648000000000        81.9200000000000     
 -0.315000000000000        1.36323390250000        5.40668066666667     
   12.7972000000000        80.6400000000000     
 -0.310000000000000        1.36727684000000        5.34553600000000     
   12.8272000000000        79.3600000000000     
 -0.305000000000000        1.37099910250000        5.29610133333333     
   12.8548000000000        78.0800000000000     
 -0.300000000000000        1.37440000000000        5.24800000000000     
   12.9866666666667        76.8000000000000     
 -0.295000000000000        1.37747890250000        5.19797866666667     
   13.2798666666667        75.5200000000000     
 -0.290000000000000        1.38023524000000        5.14606933333333     
   13.5674666666667        74.2400000000000     
 -0.285000000000000        1.38266850250000        5.09230400000000     
   13.8494666666667        72.9600000000000     
 -0.280000000000000        1.38477824000000        5.03671466666667     
   14.1258666666667        71.6800000000000     
 -0.275000000000000        1.38656406250000        4.97933333333333     
   14.3966666666667        70.4000000000000     
 -0.270000000000000        1.38802564000000        4.92019200000000     
   14.6618666666667        69.1200000000000     
 -0.265000000000000        1.38916270250000        4.85932266666667     
   14.9214666666667        67.8400000000000     
 -0.260000000000000        1.38997504000000        4.79675733333333     
   15.1754666666667        66.5600000000000     
 -0.255000000000000        1.39046250250000        4.73252800000000     
   15.4238666666667        65.2800000000000     
 -0.250000000000000        1.39062500000000        4.66666666666667     
   15.6666666666667        64.0000000000000     
 -0.245000000000000        1.39046250250000        4.60753800000000     
   15.9038666666667        62.8800000000000     
 -0.240000000000000        1.38997504000000        4.54683733333333     
   16.1354666666667        61.7600000000000     
 -0.235000000000000        1.38916270250000        4.48459266666667     
   16.3614666666667        60.6400000000000     
 -0.230000000000000        1.38802564000000        4.47052800000000     
   16.5818666666667        59.5200000000000     
 -0.225000000000000        1.38656406250000        4.46025000000000     
   16.7966666666667        58.4000000000000     
 -0.220000000000000        1.38477824000000        4.44883200000000     
   17.0058666666667        57.2800000000000     
 -0.215000000000000        1.38266850250000        4.43628600000000     
   17.2094666666667        56.1600000000000     
 -0.210000000000000        1.38023524000000        4.42262400000000     
   17.4074666666667        55.0400000000000     
 -0.205000000000000        1.37747890250000        4.40785800000000     
   17.5998666666667        53.9200000000000     
 -0.200000000000000        1.37440000000000        4.39200000000000     
   17.7866666666667        52.8000000000000     
 -0.195000000000000        1.37099910250000        4.37506200000000     
   17.9678666666667        51.6800000000000     
 -0.190000000000000        1.36727684000000        4.35705600000000     
   18.1434666666667        50.5600000000000     
 -0.185000000000000        1.36323390250000        4.33799400000000     
   18.3134666666667        49.4400000000000     
 -0.180000000000000        1.35887104000000        4.31788800000000     
   18.4778666666667        48.3200000000000     
 -0.175000000000000        1.35418906250000        4.29675000000000     
   18.6366666666667        47.2000000000000     
 -0.170000000000000        1.34918884000000        4.27459200000000     
   18.7898666666667        46.0800000000000     
 -0.165000000000000        1.34387130250000        4.25142600000000     
   18.9374666666667        44.9600000000000     
 -0.160000000000000        1.33823744000000        4.22726400000000     
   19.0794666666667        43.8400000000000     
 -0.155000000000000        1.33228830250000        4.20211800000000     
   19.2158666666667        42.7200000000000     
 -0.150000000000000        1.32602500000000        4.17600000000000     
   19.3466666666667        41.6000000000000     
 -0.145000000000000        1.31944870250000        4.14892200000000     
   19.4718666666667        40.4800000000000     
 -0.140000000000000        1.31256064000000        4.12089600000000     
   19.5914666666667        39.3600000000000     
 -0.135000000000000        1.30536210250000        4.09193400000000     
   19.7054666666667        38.2400000000000     
 -0.130000000000000        1.29785444000000        4.06204800000000     
   19.8138666666667        37.1200000000000     
 -0.125000000000000        1.29003906250000        4.03125000000000     
   19.9166666666667        36.0000000000000     
 -0.120000000000000        1.28191744000000        3.99955200000000     
   20.0138666666667        35.5200000000000     
 -0.115000000000000        1.27349110250000        3.96696600000000     
   20.1054666666667        35.0400000000000     
 -0.110000000000000        1.26476164000000        3.93350400000000     
   20.1914666666667        34.5600000000000     
 -0.105000000000000        1.25573070250000        3.89917800000000     
   20.2718666666667        34.0800000000000     
 -0.100000000000000        1.24640000000000        3.86400000000000     
   20.3466666666667        33.6000000000000     
 -9.499999999999997E-002   1.23677130250000        3.82798200000000     
   20.4158666666667        33.1200000000000     
 -8.999999999999997E-002   1.22684644000000        3.79113600000000     
   20.4794666666667        32.6400000000000     
 -8.499999999999996E-002   1.21662730250000        3.75347400000000     
   20.5374666666667        32.1600000000000     
 -7.999999999999996E-002   1.20611584000000        3.71500800000000     
   20.5898666666667        31.6800000000000     
 -7.499999999999996E-002   1.19531406250000        3.67575000000000     
   20.6366666666667        31.2000000000000     
 -6.999999999999995E-002   1.18422404000000        3.63571200000000     
   20.7061333333333        30.7200000000000     
 -6.499999999999995E-002   1.17284790250000        3.59490600000000     
   20.7925333333333        30.2400000000000     
 -6.000000000000005E-002   1.16118784000000        3.55334400000000     
   20.8725333333333        29.7600000000000     
 -5.500000000000005E-002   1.14924610250000        3.51103800000000     
   20.9461333333333        29.2800000000000     
 -5.000000000000004E-002   1.13702500000000        3.46800000000000     
   21.0133333333333        28.8000000000000     
 -4.500000000000004E-002   1.12452690250000        3.42424200000000     
   21.0741333333333        28.3200000000000     
 -4.000000000000004E-002   1.11175424000000        3.37977600000000     
   21.1285333333333        27.8400000000000     
 -3.500000000000003E-002   1.09870950250000        3.33461400000000     
   21.1765333333333        27.3600000000000     
 -3.000000000000003E-002   1.08539524000000        3.28876800000000     
   21.2181333333333        26.8800000000000     
 -2.500000000000002E-002   1.07181406250000        3.24225000000000     
   21.2533333333333        26.4000000000000     
 -2.000000000000002E-002   1.05796864000000        3.19507200000000     
   21.2821333333333        25.9200000000000     
 -1.500000000000001E-002   1.04386170250000        3.14724600000000     
   21.3045333333333        25.4400000000000     
 -1.000000000000001E-002   1.02949604000000        3.09878400000000     
   21.3205333333333        24.9600000000000     
 -5.000000000000004E-003   1.01487450250000        3.04969800000000     
   21.3301333333333        24.4800000000000     
  0.000000000000000E+000   1.00000000000000        3.00000000000000     
   21.3333333333333        24.0000000000000     
  4.999999999999893E-003   1.01487450250000        3.04969800000000     
   21.3301333333333        24.4800000000000     
  1.000000000000001E-002   1.02949604000000        3.09878400000000     
   21.3205333333333        24.9600000000000     
  1.499999999999990E-002   1.04386170250000        3.14724600000000     
   21.3045333333333        25.4400000000000     
  2.000000000000002E-002   1.05796864000000        3.19507200000000     
   21.2821333333333        25.9200000000000     
  2.499999999999991E-002   1.07181406250000        3.24225000000000     
   21.2533333333333        26.4000000000000     
  3.000000000000003E-002   1.08539524000000        3.28876800000000     
   21.2181333333333        26.8800000000000     
  3.499999999999992E-002   1.09870950250000        3.33461400000000     
   21.1765333333333        27.3600000000000     
  4.000000000000004E-002   1.11175424000000        3.37977600000000     
   21.1285333333333        27.8400000000000     
  4.499999999999993E-002   1.12452690250000        3.42424200000000     
   21.0741333333333        28.3200000000000     
  5.000000000000004E-002   1.13702500000000        3.46800000000000     
   21.0133333333333        28.8000000000000     
  5.499999999999994E-002   1.14924610250000        3.51103800000000     
   20.9461333333333        29.2800000000000     
  6.000000000000005E-002   1.16118784000000        3.55334400000000     
   20.8725333333333        29.7600000000000     
  6.499999999999995E-002   1.17284790250000        3.59490600000000     
   20.7925333333333        30.2400000000000     
  7.000000000000006E-002   1.18422404000000        3.63571200000000     
   20.7061333333333        30.7200000000000     
  7.499999999999996E-002   1.19531406250000        3.67575000000000     
   20.6366666666667        31.2000000000000     
  8.000000000000007E-002   1.20611584000000        3.71500800000000     
   20.5898666666667        31.6800000000000     
  8.499999999999996E-002   1.21662730250000        3.75347400000000     
   20.5374666666667        32.1600000000000     
  9.000000000000008E-002   1.22684644000000        3.79113600000000     
   20.4794666666667        32.6400000000000     
  9.499999999999997E-002   1.23677130250000        3.82798200000000     
   20.4158666666667        33.1200000000000     
  0.100000000000000        1.24640000000000        3.86400000000000     
   20.3466666666667        33.6000000000000     
  0.105000000000000        1.25573070250000        3.89917800000000     
   20.2718666666667        34.0800000000000     
  0.110000000000000        1.26476164000000        3.93350400000000     
   20.1914666666667        34.5600000000000     
  0.115000000000000        1.27349110250000        3.96696600000000     
   20.1054666666667        35.0400000000000     
  0.120000000000000        1.28191744000000        3.99955200000000     
   20.0138666666667        35.5200000000000     
  0.125000000000000        1.29003906250000        4.03125000000000     
   19.9166666666667        36.0000000000000     
  0.130000000000000        1.29785444000000        4.06204800000000     
   19.8138666666667        37.1200000000000     
  0.135000000000000        1.30536210250000        4.09193400000000     
   19.7054666666667        38.2400000000000     
  0.140000000000000        1.31256064000000        4.12089600000000     
   19.5914666666667        39.3600000000000     
  0.145000000000000        1.31944870250000        4.14892200000000     
   19.4718666666667        40.4800000000000     
  0.150000000000000        1.32602500000000        4.17600000000000     
   19.3466666666667        41.6000000000000     
  0.155000000000000        1.33228830250000        4.20211800000000     
   19.2158666666667        42.7200000000000     
  0.160000000000000        1.33823744000000        4.22726400000000     
   19.0794666666667        43.8400000000000     
  0.165000000000000        1.34387130250000        4.25142600000000     
   18.9374666666667        44.9600000000000     
  0.170000000000000        1.34918884000000        4.27459200000000     
   18.7898666666667        46.0800000000000     
  0.175000000000000        1.35418906250000        4.29675000000000     
   18.6366666666667        47.2000000000000     
  0.180000000000000        1.35887104000000        4.31788800000000     
   18.4778666666667        48.3200000000000     
  0.185000000000000        1.36323390250000        4.33799400000000     
   18.3134666666667        49.4400000000000     
  0.190000000000000        1.36727684000000        4.35705600000000     
   18.1434666666667        50.5600000000000     
  0.195000000000000        1.37099910250000        4.37506200000000     
   17.9678666666667        51.6800000000000     
  0.200000000000000        1.37440000000000        4.39200000000000     
   17.7866666666667        52.8000000000000     
  0.205000000000000        1.37747890250000        4.40785800000000     
   17.5998666666667        53.9200000000000     
  0.210000000000000        1.38023524000000        4.42262400000000     
   17.4074666666667        55.0400000000000     
  0.215000000000000        1.38266850250000        4.43628600000000     
   17.2094666666667        56.1600000000000     
  0.220000000000000        1.38477824000000        4.44883200000000     
   17.0058666666667        57.2800000000000     