 VARIABLES = "x1", "x2"
 ZONE I=         201 F=POINT
   1.2601002104509162        1.1893895323322616     
   1.2797656795059185        1.2129369094471592     
   1.2981681743432314        1.2352872642720800     
   1.3152895339222104        1.2564185397052030     
   1.3311128615280381        1.2763098817288856     
   1.3456225414467411        1.2949416599900612     
   1.3588042543760142        1.3122954871730277     
   1.3706449915566439        1.3283542371455088     
   1.3811330676105824        1.3431020618600777     
   1.3902581320730056        1.3565244069942681     
   1.3980111796069707        1.3686080263139313     
   1.4043845588905992        1.3793409947456721     
   1.4093719801680051        1.3887127201454554     
   1.4129685214565266        1.3967139537517739     
   1.4151706334041272        1.4033367993130583     
   1.4159761427921791        1.4085747208803256     
   1.4153842546801667        1.4124225492573714     
   1.4133955531901969        1.4148764871021409     
   1.4100120009305412        1.4159341126742488     
   1.4052369370587794        1.4155943822249446     
   1.3990750739864517        1.4138576310271651     
   1.3915324927284800        1.4107255730446622     
   1.3826166369019390        1.4062012992405268     
   1.3723363053801059        1.4002892745267816     
   1.3607016436090320        1.3929953333580509     
   1.3477241335952168        1.3843266739736608     
   1.3334165825742492        1.3742918512938433     
   1.3177931103716161        1.3629007684770649     
   1.3008691354681363        1.3501646671468033     
   1.2826613597837835        1.3360961162974234     
   1.2631877521949069        1.3207089998900974     
   1.2424675308011195        1.3040185031510094     
   1.2205211439593542        1.2860410975853733     
   1.1973702501038042        1.2667945247220436     
   1.1730376963716640        1.2462977786047698     
   1.1475474960557628        1.2245710870473676     
   1.1209248049063423        1.2016358916713084     
   1.0931958963053712        1.1775148267454290     
   1.0643881353378866        1.1522316968486399     
   1.0345299517859605        1.1258114533776795     
   1.0036508120719363        1.0982801699230995     
  0.97178119017862818        1.0696650165377772     
  0.93895253757517838        1.0399942329233542     
  0.90519725217825586        1.0092971005610618     
  0.87054864637922202       0.97760391381443112     
  0.83504091416882364       0.94494595003241644     
  0.79870909739185214       0.91135543868242708     
  0.76158905116507225       0.87686552954373309     
  0.72371740849255362       0.84151025999263851     
  0.68513154411331401       0.80532452141169575     
  0.64586953761696819       0.76834402475612718     
  0.60597013586376891       0.73060526531142289     
  0.56547271474613303       0.69214548667689868     
  0.52441724032939097       0.65300264401076169     
  0.48284422941010480       0.61321536657295106     
  0.44079470953088079       0.57282291960272103     
  0.39831017849114014       0.53186516556859231     
  0.35543256339379947       0.49038252482890721     
  0.31220417926828214       0.44841593574181521     
  0.26866768731069479       0.40600681426405855     
  0.22486605278237490       0.36319701307842006     
  0.18084250260836573       0.32002878029017934     
  0.13664048271766266       0.27654471773333572     
   9.2303615167321967E-002  0.23278773892773702     
   4.7875655092761933E-002  0.18880102672862123     
   3.4004475267236205E-003  0.14462799071034887     
  -4.1078115870483142E-002  0.10031222432639378     
  -8.5516140126746243E-002   5.5897461887870634E-002
 -0.12986977027719343        1.1427535403046104E-002
 -0.17409523464374388       -3.3053668679557689E-002
 -0.21814888803247348       -7.7502252781792680E-002
 -0.26198725480614998      -0.12187435151749292     
 -0.30556707178943682      -0.16612617498231355     
 -0.34884533096442710      -0.21021405196908277     
 -0.39177932191436321      -0.25409447306600913     
 -0.43432667397366037      -0.29772413359521654     
 -0.47644539804263997      -0.34105997634923541     
 -0.51809392802570231      -0.38405923408326831     
 -0.55923116185204058      -0.42667947172129361     
 -0.59981650203842773      -0.46887862823436749     
 -0.63980989575402614      -0.51061505814977604     
 -0.67917187434770065      -0.55184757265009421     
 -0.71786359229880770      -0.59253548022157132     
 -0.75584686555303882      -0.63263862681174654     
 -0.79308420920546596      -0.67211743545664437     
 -0.82953887449362418      -0.71093294533846774     
 -0.86517488506409945      -0.74904685023521700     
 -0.89995707247684587      -0.78642153632430600     
 -0.93385111091219264      -0.82302011930286645     
 -0.96682355104627971      -0.85880648078809785     
 -0.99884185306150552      -0.89374530396175389     
  -1.0298744187593980      -0.92780210842357802     
  -1.0598906227442206      -0.96094328421929398     
  -1.0888608426465405      -0.99313612500957482     
  -1.1167564883569310       -1.0243488603472486     
  -1.1435500302409574       -1.0545506870308956     
  -1.1692150263076044       -1.0837117995038907     
  -1.1937261483043271       -1.1118034192688870     
  -1.2170592067129775       -1.1387978232887181     
  -1.2391911746219411       -1.1646683713456909     
  -1.2601002104509160       -1.1893895323322614     
  -1.2797656795059182       -1.2129369094471589     
  -1.2981681743432314       -1.2352872642720800     
  -1.3152895339222104       -1.2564185397052028     
  -1.3311128615280381       -1.2763098817288856     
  -1.3456225414467409       -1.2949416599900609     
  -1.3588042543760142       -1.3122954871730277     
  -1.3706449915566439       -1.3283542371455088     
  -1.3811330676105824       -1.3431020618600777     
  -1.3902581320730054       -1.3565244069942679     
  -1.3980111796069710       -1.3686080263139313     
  -1.4043845588905992       -1.3793409947456723     
  -1.4093719801680051       -1.3887127201454554     
  -1.4129685214565266       -1.3967139537517739     
  -1.4151706334041272       -1.4033367993130583     
  -1.4159761427921791       -1.4085747208803256     
  -1.4153842546801665       -1.4124225492573712     
  -1.4133955531901967       -1.4148764871021409     
  -1.4100120009305412       -1.4159341126742488     
  -1.4052369370587792       -1.4155943822249444     
  -1.3990750739864519       -1.4138576310271653     
  -1.3915324927284800       -1.4107255730446624     
  -1.3826166369019390       -1.4062012992405268     
  -1.3723363053801056       -1.4002892745267814     
  -1.3607016436090322       -1.3929953333580511     
  -1.3477241335952168       -1.3843266739736608     
  -1.3334165825742492       -1.3742918512938433     
  -1.3177931103716161       -1.3629007684770649     
  -1.3008691354681361       -1.3501646671468031     
  -1.2826613597837837       -1.3360961162974236     
  -1.2631877521949069       -1.3207089998900974     
  -1.2424675308011197       -1.3040185031510096     
  -1.2205211439593537       -1.2860410975853731     
  -1.1973702501038039       -1.2667945247220436     
  -1.1730376963716642       -1.2462977786047700     
  -1.1475474960557628       -1.2245710870473676     
  -1.1209248049063418       -1.2016358916713079     
  -1.0931958963053707       -1.1775148267454285     
  -1.0643881353378863       -1.1522316968486395     
  -1.0345299517859603       -1.1258114533776795     
  -1.0036508120719363       -1.0982801699230995     
 -0.97178119017862841       -1.0696650165377772     
 -0.93895253757517805       -1.0399942329233540     
 -0.90519725217825575       -1.0092971005610616     
 -0.87054864637922202      -0.97760391381443124     
 -0.83504091416882364      -0.94494595003241644     
 -0.79870909739185236      -0.91135543868242730     
 -0.76158905116507192      -0.87686552954373276     
 -0.72371740849255306      -0.84151025999263807     
 -0.68513154411331390      -0.80532452141169553     
 -0.64586953761696830      -0.76834402475612729     
 -0.60597013586376935      -0.73060526531142334     
 -0.56547271474613370      -0.69214548667689935     
 -0.52441724032939085      -0.65300264401076158     
 -0.48284422941010469      -0.61321536657295095     
 -0.44079470953088096      -0.57282291960272114     
 -0.39831017849114053      -0.53186516556859265     
 -0.35543256339380003      -0.49038252482890776     
 -0.31220417926828198      -0.44841593574181504     
 -0.26866768731069474      -0.40600681426405849     
 -0.22486605278237484      -0.36319701307842001     
 -0.18084250260836621      -0.32002878029017978     
 -0.13664048271766313      -0.27654471773333617     
  -9.2303615167323078E-002 -0.23278773892773810     
  -4.7875655092763439E-002 -0.18880102672862273     
  -3.4004475267251119E-003 -0.14462799071035037     
   4.1078115870483614E-002 -0.10031222432639331     
   8.5516140126746701E-002  -5.5897461887870162E-002
  0.12986977027719343       -1.1427535403046104E-002
  0.17409523464374388        3.3053668679557689E-002
  0.21814888803247326        7.7502252781792430E-002
  0.26198725480614915       0.12187435151749204     
  0.30556707178943610       0.16612617498231283     
  0.34884533096442627       0.21021405196908191     
  0.39177932191436193       0.25409447306600780     
  0.43432667397365893       0.29772413359521505     
  0.47644539804263975       0.34105997634923518     
  0.51809392802570253       0.38405923408326859     
  0.55923116185204080       0.42667947172129395     
  0.59981650203842751       0.46887862823436727     
  0.63980989575402603       0.51061505814977592     
  0.67917187434770043       0.55184757265009399     
  0.71786359229880736       0.59253548022157110     
  0.75584686555303748       0.63263862681174510     
  0.79308420920546485       0.67211743545664315     
  0.82953887449362418       0.71093294533846774     
  0.86517488506409923       0.74904685023521678     
  0.89995707247684686       0.78642153632430700     
  0.93385111091219297       0.82302011930286678     
  0.96682355104627959       0.85880648078809774     
  0.99884185306150564       0.89374530396175389     
   1.0298744187593980       0.92780210842357780     
   1.0598906227442206       0.96094328421929398     
   1.0888608426465398       0.99313612500957416     
   1.1167564883569308        1.0243488603472484     
   1.1435500302409574        1.0545506870308954     
   1.1692150263076044        1.0837117995038905     
   1.1937261483043267        1.1118034192688866     
   1.2170592067129777        1.1387978232887184     
   1.2391911746219411        1.1646683713456907     
   1.2601002104509160        1.1893895323322614     
