 VARIABLES = "x1", "x2"
 ZONE I=           3 F=POINT
  0.50000000000000011       0.86602540378443860     
   0.0000000000000000        0.0000000000000000     
 -0.86602540378443860       0.50000000000000011     
