 VARIABLES = "y21", "y22"
 ZONE I=         201 F=POINT
   5.0000000000000017E-002   1.7320508075688772     
   4.7255076486905412E-002   1.7626069041299843     
   4.4463517918492762E-002   1.7914235204788258     
   4.1628079226040129E-002   1.8184722180941371     
   3.8751558645210314E-002   1.8437263031770010     
   3.5836794954530043E-002   1.8671608529944035     
   3.2886664673858340E-002   1.8887527404749620     
   2.9904079225608685E-002   1.9084806570325537     
   2.6891982061526584E-002   1.9263251335953162     
   2.3853345757858101E-002   1.9422685598192722     
   2.0791169081775949E-002   1.9562952014676112     
   1.7708474031958344E-002   1.9683912159384838     
   1.4608302856241182E-002   1.9785446659259767     
   1.1493715049286674E-002   1.9867455312007929     
   8.3677843332315635E-003   1.9929857184990087     
   5.2335956242944024E-003   1.9972590695091477     
   2.0942419883357051E-003   1.9995613669496910     
  -1.0471784116245669E-003   1.9998903387310245     
  -4.1875653729199526E-003   1.9982456601977168     
  -7.3238197127631537E-003   1.9946289544489164     
  -1.0452846326765332E-002   1.9890437907365468     
  -1.3571557243430427E-002   1.9814956809428872     
  -1.6676874671610206E-002   1.9719920741410097     
  -1.9765734037912597E-002   1.9605423492434439     
  -2.2835087011065559E-002   1.9471578057463206     
  -2.5881904510252060E-002   1.9318516525781368     
  -2.8903179694447154E-002   1.9146389950641347     
  -3.1895930929806977E-002   1.8955368200191716     
  -3.4857204732181506E-002   1.8745639789837831     
  -3.7784078681846696E-002   1.8517411696199895     
  -4.0673664307580001E-002   1.8270909152852020     
  -4.3523109937232733E-002   1.8006375428043873     
  -4.6329603511986166E-002   1.7724071584624297     
  -4.9090375361514074E-002   1.7424276222403789     
  -5.1802700937313019E-002   1.7107285203210132     
  -5.4463903501502701E-002   1.6773411358908483     
  -5.7071356768443160E-002   1.6422984182674083     
  -5.9622487496561571E-002   1.6056349503822291     
  -6.2114778027831025E-002   1.5673869146516799     
  -6.4545768772395040E-002   1.5275920572692847     
  -6.6913060635885813E-002   1.4862896509547887     
  -6.9214317387040661E-002   1.4435204561967248     
  -7.1447267963280325E-002   1.3993266810267309     
  -7.3609708711973407E-002   1.3537519393653217     
  -7.5699505565175629E-002   1.3068412079802112     
  -7.7714596145697090E-002   1.2586407820996752     
  -7.9652991802419609E-002   1.2091982297247503     
  -8.1512779572855423E-002   1.1585623446853577     
  -8.3292124071009943E-002   1.1067830984866887     
  -8.4989269298686387E-002   1.0539115909933556     
  -8.6602540378443865E-002   1.0000000000000002     
  -8.8130345206499219E-002  0.94510152973810835     
  -8.9571176023941282E-002  0.88927035836985513     
  -9.0923610904706853E-002  0.83256158452080242     
  -9.2186315158850063E-002  0.77503117290420642     
  -9.3358042649720183E-002  0.71673589909060087     
  -9.4437637023748106E-002  0.65773329347716680     
  -9.5424032851627691E-002  0.59808158451217386     
  -9.6316256679765816E-002  0.53783964123053152     
  -9.7113427990963605E-002  0.47706691515716215     
  -9.7814760073380566E-002  0.41582338163551946     
  -9.8419560796924196E-002  0.35416948063916687     
  -9.8927233296298822E-002  0.29216605712482391     
  -9.9337276560039656E-002  0.22987430098573333     
  -9.9649285924950440E-002  0.16735568666463094     
  -9.9862953475457400E-002  0.10467191248588800     
  -9.9978068347484558E-002   4.1884839766713838E-002
  -9.9994516936551217E-002  -2.0943568232491359E-002
  -9.9912283009885847E-002  -8.3751307458399343E-002
  -9.9731447722445812E-002 -0.14647639425526307     
  -9.9452189536827329E-002 -0.20905692653530644     
  -9.9074784047144371E-002 -0.27143114486860881     
  -9.8599603707050495E-002 -0.33353749343220424     
  -9.8027117462172186E-002 -0.39531468075825166     
  -9.7357890287316035E-002 -0.45670174022131121     
  -9.6592582628906840E-002 -0.51763809020504126     
  -9.5731949753206744E-002 -0.57806359388894246     
  -9.4776841000958595E-002 -0.63791861859613985     
  -9.3728198949189170E-002 -0.69714409464363003     
  -9.2587058480999476E-002 -0.75568157363693433     
  -9.1354545764260109E-002 -0.81347328615159986     
  -9.0031877140219374E-002 -0.87046219874465447     
  -8.8620357923121507E-002 -0.92659207023972245     
  -8.7121381112018947E-002 -0.98180750723028198     
  -8.5536426016050673E-002  -1.0360540187462604     
  -8.3867056794542427E-002  -1.0892780700300537     
  -8.2114920913370429E-002  -1.1414271353688628     
  -8.0281747519111490E-002  -1.1924497499312305     
  -7.8369345732584014E-002  -1.2422955605566204     
  -7.6379602863464235E-002  -1.2909153754479010     
  -7.4314482547739438E-002  -1.3382612127177160     
  -7.2176022809836246E-002  -1.3842863477408129     
  -6.9966334051336593E-002  -1.4289453592656058     
  -6.7687596968266095E-002  -1.4721941742394682     
  -6.5342060399010554E-002  -1.5139901113035128     
  -6.2932039104983767E-002  -1.5542919229139414     
  -6.0459911486237521E-002  -1.5930598360483921     
  -5.7928117234267898E-002  -1.6302555914571084     
  -5.5339154924334437E-002  -1.6658424814201986     
  -5.2695579549667762E-002  -1.6997853859737277     
  -5.0000000000000024E-002  -1.7320508075688770     
  -4.7255076486905440E-002  -1.7626069041299841     
  -4.4463517918492762E-002  -1.7914235204788258     
  -4.1628079226040150E-002  -1.8184722180941368     
  -3.8751558645210314E-002  -1.8437263031770010     
  -3.5836794954530057E-002  -1.8671608529944033     
  -3.2886664673858326E-002  -1.8887527404749620     
  -2.9904079225608685E-002  -1.9084806570325537     
  -2.6891982061526605E-002  -1.9263251335953162     
  -2.3853345757858139E-002  -1.9422685598192719     
  -2.0791169081775963E-002  -1.9562952014676114     
  -1.7708474031958334E-002  -1.9683912159384840     
  -1.4608302856241182E-002  -1.9785446659259767     
  -1.1493715049286700E-002  -1.9867455312007929     
  -8.3677843332316034E-003  -1.9929857184990087     
  -5.2335956242943625E-003  -1.9972590695091477     
  -2.0942419883356947E-003  -1.9995613669496908     
   1.0471784116245573E-003  -1.9998903387310243     
   4.1875653729199274E-003  -1.9982456601977168     
   7.3238197127631138E-003  -1.9946289544489162     
   1.0452846326765278E-002  -1.9890437907365470     
   1.3571557243430439E-002  -1.9814956809428874     
   1.6676874671610206E-002  -1.9719920741410097     
   1.9765734037912583E-002  -1.9605423492434437     
   2.2835087011065527E-002  -1.9471578057463208     
   2.5881904510252015E-002  -1.9318516525781368     
   2.8903179694447157E-002  -1.9146389950641347     
   3.1895930929806977E-002  -1.8955368200191716     
   3.4857204732181533E-002  -1.8745639789837829     
   3.7784078681846710E-002  -1.8517411696199897     
   4.0673664307580001E-002  -1.8270909152852020     
   4.3523109937232712E-002  -1.8006375428043875     
   4.6329603511986200E-002  -1.7724071584624292     
   4.9090375361514095E-002  -1.7424276222403787     
   5.1802700937313012E-002  -1.7107285203210134     
   5.4463903501502688E-002  -1.6773411358908483     
   5.7071356768443209E-002  -1.6422984182674076     
   5.9622487496561599E-002  -1.6056349503822287     
   6.2114778027831045E-002  -1.5673869146516795     
   6.4545768772395054E-002  -1.5275920572692845     
   6.6913060635885799E-002  -1.4862896509547887     
   6.9214317387040647E-002  -1.4435204561967250     
   7.1447267963280353E-002  -1.3993266810267304     
   7.3609708711973434E-002  -1.3537519393653215     
   7.5699505565175643E-002  -1.3068412079802112     
   7.7714596145697076E-002  -1.2586407820996752     
   7.9652991802419609E-002  -1.2091982297247506     
   8.1512779572855437E-002  -1.1585623446853572     
   8.3292124071009957E-002  -1.1067830984866880     
   8.4989269298686387E-002  -1.0539115909933554     
   8.6602540378443851E-002  -1.0000000000000004     
   8.8130345206499205E-002 -0.94510152973810890     
   8.9571176023941268E-002 -0.88927035836985613     
   9.0923610904706853E-002 -0.83256158452080231     
   9.2186315158850063E-002 -0.77503117290420620     
   9.3358042649720169E-002 -0.71673589909060109     
   9.4437637023748092E-002 -0.65773329347716736     
   9.5424032851627677E-002 -0.59808158451217464     
   9.6316256679765830E-002 -0.53783964123053130     
   9.7113427990963605E-002 -0.47706691515716204     
   9.7814760073380566E-002 -0.41582338163551935     
   9.8419560796924183E-002 -0.35416948063916753     
   9.8927233296298822E-002 -0.29216605712482457     
   9.9337276560039642E-002 -0.22987430098573489     
   9.9649285924950426E-002 -0.16735568666463305     
   9.9862953475457386E-002 -0.10467191248589011     
   9.9978068347484558E-002  -4.1884839766713172E-002
   9.9994516936551203E-002   2.0943568232492025E-002
   9.9912283009885847E-002   8.3751307458399343E-002
   9.9731447722445812E-002  0.14647639425526307     
   9.9452189536827343E-002  0.20905692653530611     
   9.9074784047144371E-002  0.27143114486860759     
   9.8599603707050509E-002  0.33353749343220324     
   9.8027117462172200E-002  0.39531468075825044     
   9.7357890287316048E-002  0.45670174022130933     
   9.6592582628906867E-002  0.51763809020503915     
   9.5731949753206744E-002  0.57806359388894213     
   9.4776841000958567E-002  0.63791861859614019     
   9.3728198949189157E-002  0.69714409464363047     
   9.2587058480999490E-002  0.75568157363693400     
   9.1354545764260109E-002  0.81347328615159975     
   9.0031877140219374E-002  0.87046219874465414     
   8.8620357923121507E-002  0.92659207023972212     
   8.7121381112019003E-002  0.98180750723027999     
   8.5536426016050715E-002   1.0360540187462588     
   8.3867056794542427E-002   1.0892780700300537     
   8.2114920913370443E-002   1.1414271353688625     
   8.0281747519111449E-002   1.1924497499312319     
   7.8369345732583987E-002   1.2422955605566208     
   7.6379602863464235E-002   1.2909153754479008     
   7.4314482547739452E-002   1.3382612127177160     
   7.2176022809836260E-002   1.3842863477408127     
   6.9966334051336593E-002   1.4289453592656058     
   6.7687596968266137E-002   1.4721941742394673     
   6.5342060399010568E-002   1.5139901113035126     
   6.2932039104983781E-002   1.5542919229139411     
   6.0459911486237528E-002   1.5930598360483919     
   5.7928117234267940E-002   1.6302555914571077     
   5.5339154924334416E-002   1.6658424814201991     
   5.2695579549667776E-002   1.6997853859737277     
   5.0000000000000037E-002   1.7320508075688770     
