 VARIABLES = "x1", "x2"
 ZONE I=           3 F=POINT
   5.0000000000000017E-002   1.7320508075688772     
   0.0000000000000000        0.0000000000000000     
  -8.6602540378443865E-002   1.0000000000000002     
