 VARIABLES = "x1", "x2"
 ZONE I=           3 F=POINT
   1.2601002104509162        1.1893895323322616     
   0.0000000000000000        0.0000000000000000     
  0.64586953761696819       0.76834402475612718     
